 Gaussian 03, Revision D.01,
 Gaussian 03:  AM64L-G03RevD.01 13-Oct-2005

 -------------------------------------
 # freq nosymm b3lyp/cbsb7 iop(7/33=1)
 -------------------------------------

 -------------------
 Title Card Required
 -------------------
 Symbolic Z-matrix:
 Charge =  0 Multiplicity = 2

                          Input orientation:
 ---------------------------------------------------------------------
 Center     Atomic     Atomic              Coordinates (Angstroms)
 Number     Number      Type              X           Y           Z
 ---------------------------------------------------------------------
    1          6             0       -0.715857   -0.708803   -0.154158
    2          1             0       -0.179089   -1.650607   -0.285738
    3          1             0       -0.470880   -0.063968   -1.002409
    4          1             0       -1.789162   -0.913499   -0.183815
    5          6             0       -0.316196   -0.047386    1.171559
    6          1             0       -0.800110    0.944841    1.224703
    7          6             0       -0.752747   -0.840719    2.360505
    8          1             0       -1.422282   -1.686881    2.264285
    9          1             0       -0.499110   -0.509543    3.362396
   10          6             0        1.201355    0.240198    1.229873
   11          1             0        1.491051    0.873912    0.388103
   12          1             0        1.431613    0.787531    2.155733
   13          8             0        1.994237   -0.934545    1.121944
   14          1             0        1.718529   -1.528277    1.829571
 ---------------------------------------------------------------------

 SCF Done:  E(UB+HF-LYP) =  -233.066312140     A.U. after   14 cycles

 Alpha  occ. eigenvalues --  -19.10955 -10.21496 -10.18422 -10.18287 -10.15877
 Alpha  occ. eigenvalues --   -1.01826  -0.80616  -0.68562  -0.67915  -0.57254
 Alpha  occ. eigenvalues --   -0.49756  -0.47215  -0.45450  -0.44288  -0.40053
 Alpha  occ. eigenvalues --   -0.37432  -0.35601  -0.35581  -0.32740  -0.27326
 Alpha  occ. eigenvalues --   -0.21777
 Alpha virt. eigenvalues --    0.03786   0.06128   0.07672   0.08826   0.09986
 Alpha virt. eigenvalues --    0.10886   0.11148   0.13906   0.15132   0.17712
 Alpha virt. eigenvalues --    0.20140   0.23880   0.24825   0.30027   0.30528

  Beta  occ. eigenvalues --  -19.10934 -10.21408 -10.18500 -10.16907 -10.15869
  Beta  occ. eigenvalues --   -1.01760  -0.79819  -0.68128  -0.65982  -0.56298
  Beta  occ. eigenvalues --   -0.49572  -0.46513  -0.45140  -0.43684  -0.39847
  Beta  occ. eigenvalues --   -0.37296  -0.35363  -0.34938  -0.32384  -0.27109
  Beta virt. eigenvalues --   -0.07065   0.04170   0.06359   0.07749   0.09570
  Beta virt. eigenvalues --    0.10171   0.11046   0.11341   0.13976   0.15226
  Beta virt. eigenvalues --    0.17976   0.20345   0.24127   0.25244   0.30189

 Mulliken atomic charges:
              1
     1  C   -0.268192
     2  H    0.112328
     3  H    0.103755
     4  H    0.107309
     5  C   -0.218536
     6  H    0.120599
     7  C   -0.247278
     8  H    0.121105
     9  H    0.115187
    10  C    0.011404
    11  H    0.108711
    12  H    0.096942
    13  O   -0.393532
    14  H    0.230197
 Sum of Mulliken charges=   0.00000

 Dipole moment (field-independent basis, Debye):
    X=    -1.2898    Y=     0.3851    Z=     0.9617  Tot=     1.6543
 Quadrupole moment (field-independent basis, Debye-Ang):
   XX=   -37.7124   YY=   -31.5157   ZZ=   -29.6802
   XY=     1.6552   XZ=     0.4634   YZ=    -1.4569

  Exact polarizability:  49.442   2.756  48.170   0.001  -1.476  51.980
 Approx polarizability:  64.578   1.183  67.835  -1.575  -2.578  67.233

                     1                      2                      3
                     A                      A                      A
 Frequencies --   119.0457               146.3198               215.8569
 Red. masses --     1.1694                 2.0238                 1.2216
 Frc consts  --     0.0098                 0.0255                 0.0335
 IR Inten    --     1.6418                 5.3127                 0.6993

                     4                      5                      6
                     A                      A                      A
 Frequencies --   259.7393               335.5818               383.2087
 Red. masses --     2.3732                 1.4233                 2.0596
 Frc consts  --     0.0943                 0.0944                 0.1782
 IR Inten    --     3.2459                58.4770                 0.0888

                     7                      8                      9
                     A                      A                      A
 Frequencies --   400.1249               511.0788               646.7893
 Red. masses --     1.3974                 1.3950                 2.7433
 Frc consts  --     0.1318                 0.2147                 0.6762
 IR Inten    --    83.6273                30.3613                14.3527

                    10                     11                     12
                     A                      A                      A
 Frequencies --   792.4224               913.3731               939.6743
 Red. masses --     3.2547                 1.6484                 1.3902
 Frc consts  --     1.2041                 0.8102                 0.7232
 IR Inten    --     3.8507                 2.5050                10.1606

                    13                     14                     15
                     A                      A                      A
 Frequencies --   956.4177               996.1900              1068.5603
 Red. masses --     1.6491                 1.8721                 2.5904
 Frc consts  --     0.8888                 1.0946                 1.7427
 IR Inten    --     3.9436                33.4167                52.1829

                    16                     17                     18
                     A                      A                      A
 Frequencies --  1146.6057              1171.0768              1211.8996
 Red. masses --     1.6093                 1.4793                 1.3639
 Frc consts  --     1.2466                 1.1953                 1.1802
 IR Inten    --    11.5438                14.0032                11.2878

                    19                     20                     21
                     A                      A                      A
 Frequencies --  1285.7873              1335.0467              1383.0416
 Red. masses --     1.4710                 1.6354                 1.2293
 Frc consts  --     1.4329                 1.7174                 1.3854
 IR Inten    --     1.3638                 8.9107                 1.2607

                    22                     23                     24
                     A                      A                      A
 Frequencies --  1407.5230              1421.2368              1461.8341
 Red. masses --     1.2696                 1.2216                 1.1689
 Frc consts  --     1.4820                 1.4538                 1.4717
 IR Inten    --    13.6937                37.5688                 2.6284

                    25                     26                     27
                     A                      A                      A
 Frequencies --  1494.7741              1504.4361              1513.1596
 Red. masses --     1.0559                 1.0489                 1.0841
 Frc consts  --     1.3900                 1.3987                 1.4625
 IR Inten    --     7.0407                 6.3176                 1.9516

                    28                     29                     30
                     A                      A                      A
 Frequencies --  2912.9117              2975.8157              3031.3516
 Red. masses --     1.0787                 1.0714                 1.0349
 Frc consts  --     5.3927                 5.5902                 5.6032
 IR Inten    --    26.1398                87.8762                23.7525

                    31                     32                     33
                     A                      A                      A
 Frequencies --  3074.7852              3093.1481              3105.0273
 Red. masses --     1.0930                 1.1021                 1.1019
 Frc consts  --     6.0885                 6.2124                 6.2593
 IR Inten    --    31.8822                36.5565                23.1618

                    34                     35                     36
                     A                      A                      A
 Frequencies --  3125.3799              3228.5979              3796.5836
 Red. masses --     1.0515                 1.1177                 1.0658
 Frc consts  --     6.0513                 6.8646                 9.0509
 IR Inten    --    16.2825                14.0807                19.3833

 - Thermochemistry -
 -------------------
 Temperature   298.150 Kelvin.  Pressure   1.00000 Atm.
 Atom  1 has atomic number  6 and mass  12.00000

 Molecular mass:    73.06534 amu.
 Principal axes and moments of inertia in atomic units:
                           1         2         3
     EIGENVALUES --   279.80905 445.00137 555.93238
           X            0.99706  -0.06606  -0.03894
           Y            0.03631  -0.04050   0.99852
           Z            0.06754   0.99699   0.03798
 This molecule is an asymmetric top.
 Rotational symmetry number  1.
 Rotational temperatures (Kelvin)      0.30955     0.19464     0.15580
 Rotational constants (GHZ):           6.44990     4.05559     3.24633
 Zero-point vibrational energy     319190.0 (Joules/Mol)
                                   76.28825 (Kcal/Mol)
 Warning -- explicit consideration of   8 degrees of freedom as
           vibrations may cause significant error
 Vibrational temperatures:    171.28   210.52   310.57   373.71   482.83
          (Kelvin)            551.35   575.69   735.33   930.58  1140.12
                             1314.14  1351.98  1376.07  1433.29  1537.42
                             1649.71  1684.92  1743.65  1849.96  1920.83
                             1989.89  2025.11  2044.84  2103.25  2150.64
                             2164.55  2177.10  4191.03  4281.53  4361.43
                             4423.92  4450.34  4467.44  4496.72  4645.23
                             5462.43

 Zero-point correction=                           0.121573 (Hartree/Particle)
 Thermal correction to Energy=                    0.128535
 Thermal correction to Enthalpy=                  0.129479
 Thermal correction to Gibbs Free Energy=         0.091157
 Sum of electronic and zero-point Energies=           -232.944739
 Sum of electronic and thermal Energies=              -232.937777
 Sum of electronic and thermal Enthalpies=            -232.936833
 Sum of electronic and thermal Free Energies=         -232.975155

                     E (Thermal)             CV                S
                      KCal/Mol        Cal/Mol-Kelvin    Cal/Mol-Kelvin
 Total                   80.657             24.389             80.656
 Electronic               0.000              0.000              1.377
 Translational            0.889              2.981             38.783
 Rotational               0.889              2.981             25.740
 Vibrational             78.880             18.427             14.755
 Vibration  1             0.609              1.933              3.116
 Vibration  2             0.617              1.907              2.720
 Vibration  3             0.645              1.817              1.994
 Vibration  4             0.668              1.746              1.664
 Vibration  5             0.717              1.604              1.233
 Vibration  6             0.752              1.506              1.026
 Vibration  7             0.766              1.470              0.962
 Vibration  8             0.866              1.225              0.631

 Optimization completed.
    -- Stationary point found.
 Normal termination of Gaussian 03 at Tue Jun 18 11:25:46 2013.
