 Gaussian 03, Revision D.01,
 Gaussian 03:  AM64L-G03RevD.01 13-Oct-2005

 -------------------------------------
 # freq nosymm b3lyp/cbsb7 iop(7/33=1)
 -------------------------------------

 -------------------
 Title Card Required
 -------------------
 Symbolic Z-matrix:
 Charge =  0 Multiplicity = 2

                          Input orientation:
 ---------------------------------------------------------------------
 Center     Atomic     Atomic              Coordinates (Angstroms)
 Number     Number      Type              X           Y           Z
 ---------------------------------------------------------------------
    1          6             0       -3.039551    0.846350    0.536747
    2          1             0       -3.561217    1.256214    1.392266
    3          8             0       -2.642752    1.800233   -0.337065
    4          1             0       -1.952115    1.428990   -0.903178
    5          6             0       -2.665718   -0.488319    0.456337
    6          6             0       -3.224860   -1.434211    1.486765
    7          1             0       -3.551552   -0.908099    2.385529
    8          1             0       -4.074727   -1.992980    1.081000
    9          1             0       -2.454753   -2.155090    1.772696
   10          6             0       -2.295119   -1.096875   -0.876255
   11          1             0       -1.563293   -0.494816   -1.419295
   12          1             0       -1.846311   -2.078560   -0.723459
   13          1             0       -3.184648   -1.210006   -1.505911
   14          8             0       -0.860533   -0.378616    1.174336
   15          8             0       -0.115763    0.501182    0.353834
   16          1             0       -0.037713    1.288343    0.910871
 ---------------------------------------------------------------------

 SCF Done:  E(UB+HF-LYP) =  -383.459047499     A.U. after   18 cycles

 Alpha  occ. eigenvalues --  -19.16880 -19.16570 -19.14686 -10.23514 -10.21775
 Alpha  occ. eigenvalues --  -10.17320 -10.17203  -1.10394  -1.07946  -0.85402
 Alpha  occ. eigenvalues --   -0.80342  -0.70973  -0.69428  -0.60118  -0.51280
 Alpha  occ. eigenvalues --   -0.50279  -0.48360  -0.47384  -0.42669  -0.41459
 Alpha  occ. eigenvalues --   -0.40651  -0.40033  -0.39580  -0.38467  -0.36701
 Alpha  occ. eigenvalues --   -0.36627  -0.27942  -0.26284  -0.19245
 Alpha virt. eigenvalues --    0.01575   0.02721   0.04693   0.06255   0.08419
 Alpha virt. eigenvalues --    0.09412   0.09918   0.11533   0.12485   0.13835
 Alpha virt. eigenvalues --    0.15280   0.18928   0.21678   0.24861   0.27933

  Beta  occ. eigenvalues --  -19.16698 -19.16168 -19.13340 -10.22751 -10.21865
  Beta  occ. eigenvalues --  -10.17302 -10.17197  -1.09165  -1.07052  -0.84058
  Beta  occ. eigenvalues --   -0.79026  -0.70781  -0.68411  -0.59763  -0.50814
  Beta  occ. eigenvalues --   -0.49820  -0.48027  -0.46437  -0.41643  -0.40430
  Beta  occ. eigenvalues --   -0.40404  -0.39416  -0.38958  -0.36681  -0.36362
  Beta  occ. eigenvalues --   -0.35470  -0.25590  -0.24007
  Beta virt. eigenvalues --   -0.08169   0.02834   0.03628   0.05056   0.06597
  Beta virt. eigenvalues --    0.08571   0.09890   0.10074   0.11819   0.12622
  Beta virt. eigenvalues --    0.13874   0.15436   0.19121   0.22042   0.25274

 Mulliken atomic charges:
              1
     1  C    0.157110
     2  H    0.114514
     3  O   -0.307475
     4  H    0.249456
     5  C   -0.195485
     6  C   -0.239421
     7  H    0.106069
     8  H    0.116127
     9  H    0.133324
    10  C   -0.208207
    11  H    0.104343
    12  H    0.125657
    13  H    0.118589
    14  O   -0.273625
    15  O   -0.267695
    16  H    0.266719
 Sum of Mulliken charges=   0.00000

 Dipole moment (field-independent basis, Debye):
    X=    -1.2395    Y=     0.3541    Z=    -0.2434  Tot=     1.3119
 Quadrupole moment (field-independent basis, Debye-Ang):
   XX=   -39.5722   YY=   -42.0557   ZZ=   -41.2051
   XY=     4.4234   XZ=    -1.5706   YZ=     2.1686

  Exact polarizability:  73.880   2.532  67.207   0.061  -2.854  56.810
 Approx polarizability: 116.673  -5.709  99.253   5.132  -9.571  80.828

 ******    1 imaginary frequencies (negative Signs) ******

                     1                      2                      3
                     A                      A                      A
 Frequencies --  -405.1252                78.2811               136.3891
 Red. masses --     7.2974                 2.7565                 4.2716
 Frc consts  --     0.7057                 0.0100                 0.0468
 IR Inten    --    20.9760                16.8470                 3.9623

                     4                      5                      6
                     A                      A                      A
 Frequencies --   185.3600               192.9693               224.7085
 Red. masses --     1.1987                 1.1485                 3.2617
 Frc consts  --     0.0243                 0.0252                 0.0970
 IR Inten    --     1.5100                 0.2981                 4.7354

                     7                      8                      9
                     A                      A                      A
 Frequencies --   249.1440               277.1848               309.5352
 Red. masses --     1.5306                 2.9545                 3.0291
 Frc consts  --     0.0560                 0.1337                 0.1710
 IR Inten    --    52.3433                 9.6048                 3.2718

                    10                     11                     12
                     A                      A                      A
 Frequencies --   365.8490               379.2671               432.0945
 Red. masses --     2.9218                 2.4268                 2.0605
 Frc consts  --     0.2304                 0.2057                 0.2267
 IR Inten    --    55.2894                 0.9702                69.8477

                    13                     14                     15
                     A                      A                      A
 Frequencies --   525.8525               577.5344               754.4236
 Red. masses --     1.3524                 3.4175                 1.3868
 Frc consts  --     0.2203                 0.6716                 0.4650
 IR Inten    --    11.3904                 1.3769                43.3986

                    16                     17                     18
                     A                      A                      A
 Frequencies --   794.4328               917.9222               972.9848
 Red. masses --     3.3924                 8.8883                 1.3379
 Frc consts  --     1.2615                 4.4124                 0.7462
 IR Inten    --    13.1947               115.6634                 0.9016

                    19                     20                     21
                     A                      A                      A
 Frequencies --  1012.4191              1028.2476              1082.5664
 Red. masses --     1.3015                 1.6825                 1.5377
 Frc consts  --     0.7860                 1.0481                 1.0617
 IR Inten    --     1.6622                18.4746                 7.8917

                    22                     23                     24
                     A                      A                      A
 Frequencies --  1194.8134              1228.6343              1329.7543
 Red. masses --     1.7143                 3.5641                 1.8592
 Frc consts  --     1.4419                 3.1699                 1.9369
 IR Inten    --   163.0287                43.6515                 1.8480

                    25                     26                     27
                     A                      A                      A
 Frequencies --  1350.0949              1381.2383              1411.4408
 Red. masses --     1.1165                 1.3983                 1.3211
 Frc consts  --     1.1990                 1.5717                 1.5506
 IR Inten    --    24.3493                32.4042                20.1543

                    28                     29                     30
                     A                      A                      A
 Frequencies --  1422.0985              1471.1880              1480.8424
 Red. masses --     1.2498                 1.0828                 1.0916
 Frc consts  --     1.4892                 1.3808                 1.4103
 IR Inten    --     5.4267                 4.6409                 1.8064

                    31                     32                     33
                     A                      A                      A
 Frequencies --  1491.6702              1506.2866              1565.8248
 Red. masses --     1.0517                 1.0651                 2.8144
 Frc consts  --     1.3787                 1.4238                 4.0656
 IR Inten    --     7.6204                20.1575                76.7828

                    34                     35                     36
                     A                      A                      A
 Frequencies --  3023.0004              3026.2783              3083.9499
 Red. masses --     1.0395                 1.0397                 1.0976
 Frc consts  --     5.5969                 5.6102                 6.1505
 IR Inten    --    18.4586                25.9789                 9.4093

                    37                     38                     39
                     A                      A                      A
 Frequencies --  3086.6526              3110.0819              3119.1949
 Red. masses --     1.0965                 1.1020                 1.0996
 Frc consts  --     6.1550                 6.2803                 6.3034
 IR Inten    --    13.7961                18.2587                13.8337

                    40                     41                     42
                     A                      A                      A
 Frequencies --  3197.6188              3742.5081              3766.4597
 Red. masses --     1.0897                 1.0688                 1.0647
 Frc consts  --     6.5647                 8.8202                 8.8990
 IR Inten    --    10.7919                43.6031                36.6580

 - Thermochemistry -
 -------------------
 Temperature   298.150 Kelvin.  Pressure   1.00000 Atm.
 Atom  1 has atomic number  6 and mass  12.00000

 Molecular mass:   105.05517 amu.
 Principal axes and moments of inertia in atomic units:
                           1         2         3
     EIGENVALUES --   652.49553 754.18970 991.05081
           X            0.66015   0.74388  -0.10414
           Y            0.71772  -0.58381   0.37953
           Z           -0.22153   0.32529   0.91930
 This molecule is an asymmetric top.
 Rotational symmetry number  1.
 Warning -- assumption of classical behavior for rotation
           may cause significant error
 Rotational temperatures (Kelvin)      0.13274     0.11484     0.08740
 Rotational constants (GHZ):           2.76591     2.39295     1.82104
    1 imaginary frequencies ignored.
 Zero-point vibrational energy     337866.1 (Joules/Mol)
                                   80.75193 (Kcal/Mol)
 Warning -- explicit consideration of  13 degrees of freedom as
           vibrations may cause significant error
 Vibrational temperatures:    112.63   196.23   266.69   277.64   323.31
          (Kelvin)            358.46   398.81   445.35   526.37   545.68
                              621.69   756.58   830.94  1085.45  1143.01
                             1320.68  1399.91  1456.64  1479.42  1557.57
                             1719.07  1767.73  1913.22  1942.48  1987.29
                             2030.75  2046.08  2116.71  2130.60  2146.18
                             2167.21  2252.87  4349.42  4354.13  4437.11
                             4441.00  4474.71  4487.82  4600.65  5384.63
                             5419.09

 Zero-point correction=                           0.128686 (Hartree/Particle)
 Thermal correction to Energy=                    0.137776
 Thermal correction to Enthalpy=                  0.138720
 Thermal correction to Gibbs Free Energy=         0.095006
 Sum of electronic and zero-point Energies=           -383.330361
 Sum of electronic and thermal Energies=              -383.321271
 Sum of electronic and thermal Enthalpies=            -383.320327
 Sum of electronic and thermal Free Energies=         -383.364041

                     E (Thermal)             CV                S
                      KCal/Mol        Cal/Mol-Kelvin    Cal/Mol-Kelvin
 Total                   86.456             31.840             92.004
 Electronic               0.000              0.000              1.377
 Translational            0.889              2.981             39.865
 Rotational               0.889              2.981             27.680
 Vibrational             84.678             25.879             23.081
 Vibration  1             0.600              1.964              3.934
 Vibration  2             0.614              1.917              2.854
 Vibration  3             0.631              1.860              2.274
 Vibration  4             0.635              1.850              2.199
 Vibration  5             0.649              1.803              1.921
 Vibration  6             0.662              1.764              1.737
 Vibration  7             0.678              1.716              1.551
 Vibration  8             0.699              1.656              1.365
 Vibration  9             0.739              1.543              1.097
 Vibration 10             0.749              1.514              1.042
 Vibration 11             0.793              1.400              0.852
 Vibration 12             0.881              1.193              0.597
 Vibration 13             0.934              1.080              0.490

 Optimization completed.
    -- Stationary point found.
 Normal termination of Gaussian 03 at Mon Jun 17 13:35:42 2013.
