 Gaussian 03, Revision D.01,
 Gaussian 03:  AM64L-G03RevD.01 13-Oct-2005

 -------------------------------------
 # freq nosymm b3lyp/cbsb7 iop(7/33=1)
 -------------------------------------

 -------------------
 Title Card Required
 -------------------
 Symbolic Z-matrix:
 Charge =  0 Multiplicity = 2

                          Input orientation:
 ---------------------------------------------------------------------
 Center     Atomic     Atomic              Coordinates (Angstroms)
 Number     Number      Type              X           Y           Z
 ---------------------------------------------------------------------
    1          6             0        0.330178    1.082146    1.438974
    2          1             0        0.755109    0.273060    2.019904
    3          1             0        1.009129    1.734193    0.906878
    4          6             0       -1.101048    1.496321    1.668508
    5          1             0       -1.379816    1.513596    2.729416
    6          6             0       -1.761100    0.337905    0.913205
    7          1             0       -2.671942    0.591425    0.364315
    8          1             0       -1.948602   -0.540673    1.538610
    9          6             0       -1.415913    2.860594    1.038658
   10          1             0       -2.505371    3.012901    1.056583
   11          1             0       -0.962100    3.658294    1.634516
   12          8             0       -0.901069    3.001168   -0.276308
   13          1             0       -0.978630    2.148192   -0.724170
   14          8             0       -0.677636    0.075278   -0.006769
   15          8             0       -1.467690   -0.891467   -1.169799
   16          1             0       -0.668632   -1.367445   -1.434577
 ---------------------------------------------------------------------

 SCF Done:  E(UB+HF-LYP) =  -383.424011377     A.U. after   22 cycles

 Alpha  occ. eigenvalues --  -19.16972 -19.13391 -19.10807 -10.22784 -10.22190
 Alpha  occ. eigenvalues --  -10.21909 -10.20035  -1.04416  -1.01724  -0.93938
 Alpha  occ. eigenvalues --   -0.80241  -0.69668  -0.67365  -0.57969  -0.51839
 Alpha  occ. eigenvalues --   -0.51253  -0.48637  -0.45609  -0.45115  -0.42043
 Alpha  occ. eigenvalues --   -0.40821  -0.39600  -0.38780  -0.35965  -0.34187
 Alpha  occ. eigenvalues --   -0.31047  -0.27451  -0.26270  -0.21764
 Alpha virt. eigenvalues --   -0.05734   0.03216   0.05051   0.07211   0.07919
 Alpha virt. eigenvalues --    0.08443   0.09987   0.11049   0.12110   0.14286
 Alpha virt. eigenvalues --    0.14656   0.18512   0.19574   0.20977   0.27167

  Beta  occ. eigenvalues --  -19.17113 -19.12164 -19.10801 -10.22695 -10.22187
  Beta  occ. eigenvalues --  -10.20854 -10.20097  -1.03997  -1.01612  -0.91892
  Beta  occ. eigenvalues --   -0.79604  -0.68111  -0.67097  -0.57413  -0.51630
  Beta  occ. eigenvalues --   -0.50490  -0.48307  -0.45217  -0.44512  -0.41811
  Beta  occ. eigenvalues --   -0.40293  -0.39007  -0.37745  -0.34715  -0.33612
  Beta  occ. eigenvalues --   -0.30504  -0.27370  -0.25656
  Beta virt. eigenvalues --   -0.09737  -0.01573   0.03397   0.05349   0.07344
  Beta virt. eigenvalues --    0.08376   0.08525   0.10157   0.11139   0.12202
  Beta virt. eigenvalues --    0.14396   0.14876   0.18686   0.19759   0.21237

 Mulliken atomic charges:
              1
     1  C   -0.098599
     2  H    0.136192
     3  H    0.149339
     4  C   -0.314591
     5  H    0.130494
     6  C    0.073764
     7  H    0.131332
     8  H    0.112700
     9  C    0.053111
    10  H    0.098742
    11  H    0.109776
    12  O   -0.407968
    13  H    0.248174
    14  O   -0.343313
    15  O   -0.329137
    16  H    0.249984
 Sum of Mulliken charges=   0.00000

 Dipole moment (field-independent basis, Debye):
    X=     0.6234    Y=    -0.8790    Z=     2.6472  Tot=     2.8581
 Quadrupole moment (field-independent basis, Debye-Ang):
   XX=   -42.2095   YY=   -47.8972   ZZ=   -38.5930
   XY=    -1.9482   XZ=    -4.2387   YZ=     5.2915

  Exact polarizability:  62.013   7.722  70.919   9.971  19.701  73.574
 Approx polarizability:  94.598  19.764  97.364  23.995  35.391 117.343

 ******    1 imaginary frequencies (negative Signs) ******

                     1                      2                      3
                     A                      A                      A
 Frequencies --  -753.1009                73.7052               103.7531
 Red. masses --    12.4418                 7.3688                 1.1260
 Frc consts  --     4.1576                 0.0236                 0.0071
 IR Inten    --   373.2733                 9.6819                86.5550

                     4                      5                      6
                     A                      A                      A
 Frequencies --   138.0009               180.6258               257.5951
 Red. masses --     2.8399                 4.0271                 3.9200
 Frc consts  --     0.0319                 0.0774                 0.1533
 IR Inten    --     4.0127                37.1955                 5.3302

                     7                      8                      9
                     A                      A                      A
 Frequencies --   283.4325               349.4441               388.0776
 Red. masses --     2.9033                 2.9867                 2.2375
 Frc consts  --     0.1374                 0.2149                 0.1985
 IR Inten    --     1.9899                15.1847                37.9295

                    10                     11                     12
                     A                      A                      A
 Frequencies --   424.6893               513.3127               549.8657
 Red. masses --     1.3202                 2.8252                 1.1019
 Frc consts  --     0.1403                 0.4386                 0.1963
 IR Inten    --    76.6537                 9.2219                 3.3915

                    13                     14                     15
                     A                      A                      A
 Frequencies --   710.0383               811.0702               843.7768
 Red. masses --     2.6227                 2.9458                 1.4094
 Frc consts  --     0.7791                 1.1418                 0.5912
 IR Inten    --     2.1734                 0.9165                15.2803

                    16                     17                     18
                     A                      A                      A
 Frequencies --   912.3459               951.0906               974.3972
 Red. masses --     1.3968                 1.7886                 2.2206
 Frc consts  --     0.6850                 0.9533                 1.2422
 IR Inten    --     1.1041                 1.3406                58.8332

                    19                     20                     21
                     A                      A                      A
 Frequencies --  1017.6638              1050.1415              1088.4438
 Red. masses --     1.9974                 2.3173                 1.6354
 Frc consts  --     1.2188                 1.5056                 1.1415
 IR Inten    --    41.5537                 7.5646                69.3763

                    22                     23                     24
                     A                      A                      A
 Frequencies --  1120.9892              1133.6322              1186.1999
 Red. masses --     1.6369                 2.1276                 1.1574
 Frc consts  --     1.2119                 1.6110                 0.9595
 IR Inten    --    14.9636                35.4436                 3.4700

                    25                     26                     27
                     A                      A                      A
 Frequencies --  1217.4760              1287.0856              1322.5157
 Red. masses --     1.1933                 1.4543                 1.6067
 Frc consts  --     1.0421                 1.4195                 1.6558
 IR Inten    --     4.0035                14.5823                 0.9917

                    28                     29                     30
                     A                      A                      A
 Frequencies --  1338.2020              1383.1833              1445.9552
 Red. masses --     1.2959                 1.3049                 1.2310
 Frc consts  --     1.3673                 1.4709                 1.5165
 IR Inten    --     2.7127                 5.5783                48.4671

                    31                     32                     33
                     A                      A                      A
 Frequencies --  1461.6570              1516.1029              1527.8634
 Red. masses --     1.2001                 1.0849                 1.0896
 Frc consts  --     1.5106                 1.4692                 1.4986
 IR Inten    --    15.6324                 1.5127                 0.5180

                    34                     35                     36
                     A                      A                      A
 Frequencies --  2972.9171              3010.8922              3027.9921
 Red. masses --     1.0713                 1.0802                 1.0604
 Frc consts  --     5.5787                 5.7694                 5.7286
 IR Inten    --    64.6045                16.5244                67.2824

                    37                     38                     39
                     A                      A                      A
 Frequencies --  3055.1793              3077.6327              3149.3526
 Red. masses --     1.0923                 1.1099                 1.0510
 Frc consts  --     6.0069                 6.1938                 6.1420
 IR Inten    --    40.8232                33.3501                 8.3688

                    40                     41                     42
                     A                      A                      A
 Frequencies --  3261.1801              3759.8498              3800.2174
 Red. masses --     1.1200                 1.0666                 1.0680
 Frc consts  --     7.0178                 8.8840                 9.0871
 IR Inten    --     2.7124                51.4058                54.7407

 - Thermochemistry -
 -------------------
 Temperature   298.150 Kelvin.  Pressure   1.00000 Atm.
 Atom  1 has atomic number  6 and mass  12.00000

 Molecular mass:   105.05517 amu.
 Principal axes and moments of inertia in atomic units:
                           1         2         3
     EIGENVALUES --   458.32768 989.391721129.80067
           X            0.07862   0.29667   0.95174
           Y            0.90632  -0.41890   0.05571
           Z            0.41522   0.85820  -0.30181
 This molecule is an asymmetric top.
 Rotational symmetry number  1.
 Warning -- assumption of classical behavior for rotation
           may cause significant error
 Rotational temperatures (Kelvin)      0.18898     0.08754     0.07666
 Rotational constants (GHZ):           3.93767     1.82409     1.59740
    1 imaginary frequencies ignored.
 Zero-point vibrational energy     339007.0 (Joules/Mol)
                                   81.02462 (Kcal/Mol)
 Warning -- explicit consideration of  11 degrees of freedom as
           vibrations may cause significant error
 Vibrational temperatures:    106.05   149.28   198.55   259.88   370.62
          (Kelvin)            407.80   502.77   558.36   611.03   738.54
                              791.13  1021.59  1166.95  1214.01  1312.66
                             1368.41  1401.94  1464.19  1510.92  1566.03
                             1612.85  1631.04  1706.68  1751.67  1851.83
                             1902.80  1925.37  1990.09  2080.40  2103.00
                             2181.33  2198.25  4277.36  4332.00  4356.60
                             4395.72  4428.02  4531.21  4692.11  5409.58
                             5467.66

 Zero-point correction=                           0.129121 (Hartree/Particle)
 Thermal correction to Energy=                    0.137631
 Thermal correction to Enthalpy=                  0.138575
 Thermal correction to Gibbs Free Energy=         0.095547
 Sum of electronic and zero-point Energies=           -383.294890
 Sum of electronic and thermal Energies=              -383.286381
 Sum of electronic and thermal Enthalpies=            -383.285437
 Sum of electronic and thermal Free Energies=         -383.328464

                     E (Thermal)             CV                S
                      KCal/Mol        Cal/Mol-Kelvin    Cal/Mol-Kelvin
 Total                   86.364             30.053             90.560
 Electronic               0.000              0.000              1.377
 Translational            0.889              2.981             39.865
 Rotational               0.889              2.981             27.729
 Vibrational             84.587             24.091             21.588
 Vibration  1             0.599              1.966              4.052
 Vibration  2             0.605              1.946              3.383
 Vibration  3             0.614              1.915              2.831
 Vibration  4             0.630              1.866              2.322
 Vibration  5             0.667              1.750              1.678
 Vibration  6             0.682              1.704              1.513
 Vibration  7             0.727              1.576              1.169
 Vibration  8             0.756              1.496              1.008
 Vibration  9             0.787              1.417              0.876
 Vibration 10             0.868              1.221              0.626
 Vibration 11             0.905              1.140              0.544

 Normal termination of Gaussian 03 at Tue Jun 18 10:43:22 2013.
