 Gaussian 03, Revision D.01,
 Gaussian 03:  AM64L-G03RevD.01 13-Oct-2005

 -------------------------------------
 # freq nosymm b3lyp/cbsb7 iop(7/33=1)
 -------------------------------------

 -------------------
 Title Card Required
 -------------------
 Symbolic Z-matrix:
 Charge =  0 Multiplicity = 1

                          Input orientation:
 ---------------------------------------------------------------------
 Center     Atomic     Atomic              Coordinates (Angstroms)
 Number     Number      Type              X           Y           Z
 ---------------------------------------------------------------------
    1          6             0       -2.721419    0.352861    0.179326
    2          1             0       -2.107277    0.188442   -0.700384
    3          1             0       -3.795704    0.282609    0.044177
    4          6             0       -2.177265    0.616476    1.367880
    5          6             0       -0.677301    0.709167    1.531481
    6          1             0       -0.179409    0.468867    0.583503
    7          1             0       -0.333669   -0.010037    2.281341
    8          8             0       -0.259431    1.984294    2.027174
    9          1             0       -0.537649    2.643718    1.382662
   10          6             0       -2.989236    0.856443    2.613018
   11          1             0       -2.793921    0.075007    3.356811
   12          1             0       -2.703518    1.805057    3.075151
   13          1             0       -4.059932    0.871575    2.402798
 ---------------------------------------------------------------------

 SCF Done:  E(RB+HF-LYP) =  -232.505431407     A.U. after   13 cycles

 Alpha  occ. eigenvalues --  -19.11439 -10.21816 -10.18261 -10.16485 -10.16334
 Alpha  occ. eigenvalues --   -1.02049  -0.80740  -0.69454  -0.67849  -0.54674
 Alpha  occ. eigenvalues --   -0.50281  -0.46555  -0.44817  -0.42794  -0.40504
 Alpha  occ. eigenvalues --   -0.38091  -0.36422  -0.33120  -0.27920  -0.26171
 Alpha virt. eigenvalues --    0.00181   0.04045   0.06454   0.07953   0.08881
 Alpha virt. eigenvalues --    0.10591   0.11437   0.13874   0.15917   0.19420
 Alpha virt. eigenvalues --    0.19971   0.26839   0.29328   0.31466   0.33208

 Mulliken atomic charges:
              1
     1  C   -0.165700
     2  H    0.094513
     3  H    0.097395
     4  C   -0.202557
     5  C    0.038278
     6  H    0.094953
     7  H    0.108591
     8  O   -0.392880
     9  H    0.230594
    10  C   -0.241196
    11  H    0.113205
    12  H    0.119345
    13  H    0.105459
 Sum of Mulliken charges=   0.00000

 Dipole moment (field-independent basis, Debye):
    X=    -0.7751    Y=    -0.1274    Z=    -0.9854  Tot=     1.2602
 Quadrupole moment (field-independent basis, Debye-Ang):
   XX=   -30.7952   YY=   -31.5424   ZZ=   -34.7595
   XY=    -1.7225   XZ=    -1.8474   YZ=    -3.1000

  Exact polarizability:  51.493   2.740  39.827   4.309   4.823  58.243
 Approx polarizability:  67.088   3.932  56.744  11.436   7.207  85.261

                     1                      2                      3
                     A                      A                      A
 Frequencies --    97.2568               177.7416               253.2410
 Red. masses --     2.4473                 1.0773                 3.3200
 Frc consts  --     0.0136                 0.0201                 0.1254
 IR Inten    --     3.1817                 0.0567                 0.3174

                     4                      5                      6
                     A                      A                      A
 Frequencies --   347.3316               418.0914               433.3583
 Red. masses --     1.3592                 2.0455                 1.6175
 Frc consts  --     0.0966                 0.2107                 0.1790
 IR Inten    --    72.7034                20.1359                46.7193

                     7                      8                      9
                     A                      A                      A
 Frequencies --   563.6581               725.7854               826.0692
 Red. masses --     2.7130                 1.1817                 2.9644
 Frc consts  --     0.5078                 0.3668                 1.1919
 IR Inten    --    10.8961                 0.6210                 4.9271

                    10                     11                     12
                     A                      A                      A
 Frequencies --   934.0097               952.2840               976.9305
 Red. masses --     1.3260                 1.4945                 1.4714
 Frc consts  --     0.6815                 0.7985                 0.8274
 IR Inten    --    51.3035                 9.3263                 0.5109

                    13                     14                     15
                     A                      A                      A
 Frequencies --  1033.3902              1057.1213              1072.3028
 Red. masses --     3.0028                 1.8898                 1.5444
 Frc consts  --     1.8893                 1.2443                 1.0463
 IR Inten    --   102.5330                 7.7484                 0.0852

                    16                     17                     18
                     A                      A                      A
 Frequencies --  1205.7921              1301.5458              1361.6424
 Red. masses --     1.1361                 2.7529                 1.2234
 Frc consts  --     0.9732                 2.7476                 1.3364
 IR Inten    --    17.1636                 1.2513                 1.5271

                    19                     20                     21
                     A                      A                      A
 Frequencies --  1405.4668              1415.4338              1449.3232
 Red. masses --     1.2893                 1.2072                 1.1914
 Frc consts  --     1.5005                 1.4250                 1.4745
 IR Inten    --     9.6186                41.3842                 3.3161

                    22                     23                     24
                     A                      A                      A
 Frequencies --  1474.4669              1496.9225              1505.3066
 Red. masses --     1.0462                 1.0585                 1.0837
 Frc consts  --     1.3401                 1.3974                 1.4468
 IR Inten    --     9.9909                14.0047                 4.5948

                    25                     26                     27
                     A                      A                      A
 Frequencies --  1713.1303              3001.0338              3017.7273
 Red. masses --     5.1733                 1.0645                 1.0421
 Frc consts  --     8.9454                 5.6484                 5.5914
 IR Inten    --    10.9902                59.8479                18.8859

                    28                     29                     30
                     A                      A                      A
 Frequencies --  3059.7031              3073.1096              3110.9791
 Red. masses --     1.0988                 1.0921                 1.1024
 Frc consts  --     6.0607                 6.0767                 6.2860
 IR Inten    --    33.1189                19.5079                18.7413

                    31                     32                     33
                     A                      A                      A
 Frequencies --  3124.2368              3203.5468              3815.0730
 Red. masses --     1.0601                 1.1154                 1.0663
 Frc consts  --     6.0964                 6.7445                 9.1438
 IR Inten    --    10.5704                19.3840                19.5164

 - Thermochemistry -
 -------------------
 Temperature   298.150 Kelvin.  Pressure   1.00000 Atm.
 Atom  1 has atomic number  6 and mass  12.00000

 Molecular mass:    72.05751 amu.
 Principal axes and moments of inertia in atomic units:
                           1         2         3
     EIGENVALUES --   240.42222 460.15391 616.68143
           X            0.87836  -0.36663  -0.30671
           Y            0.39688   0.20176   0.89542
           Z            0.26641   0.90823  -0.32272
 This molecule is an asymmetric top.
 Rotational symmetry number  1.
 Rotational temperatures (Kelvin)      0.36026     0.18823     0.14045
 Rotational constants (GHZ):           7.50655     3.92204     2.92654
 Zero-point vibrational energy     296691.9 (Joules/Mol)
                                   70.91106 (Kcal/Mol)
 Warning -- explicit consideration of   7 degrees of freedom as
           vibrations may cause significant error
 Vibrational temperatures:    139.93   255.73   364.36   499.73   601.54
          (Kelvin)            623.51   810.98  1044.24  1188.53  1343.83
                             1370.12  1405.58  1486.82  1520.96  1542.80
                             1734.86  1872.63  1959.10  2022.15  2036.49
                             2085.25  2121.43  2153.74  2165.80  2464.81
                             4317.81  4341.83  4402.22  4421.51  4476.00
                             4495.07  4609.18  5489.03

 Zero-point correction=                           0.113004 (Hartree/Particle)
 Thermal correction to Energy=                    0.119240
 Thermal correction to Enthalpy=                  0.120184
 Thermal correction to Gibbs Free Energy=         0.083749
 Sum of electronic and zero-point Energies=           -232.392427
 Sum of electronic and thermal Energies=              -232.386191
 Sum of electronic and thermal Enthalpies=            -232.385247
 Sum of electronic and thermal Free Energies=         -232.421682

                     E (Thermal)             CV                S
                      KCal/Mol        Cal/Mol-Kelvin    Cal/Mol-Kelvin
 Total                   74.824             21.734             76.683
 Electronic               0.000              0.000              0.000
 Translational            0.889              2.981             38.741
 Rotational               0.889              2.981             25.726
 Vibrational             73.047             15.772             12.216
 Vibration  1             0.603              1.951              3.509
 Vibration  2             0.628              1.870              2.352
 Vibration  3             0.664              1.757              1.708
 Vibration  4             0.725              1.581              1.178
 Vibration  5             0.781              1.431              0.898
 Vibration  6             0.794              1.398              0.848
 Vibration  7             0.919              1.110              0.517

 Optimization completed.
    -- Stationary point found.
 Normal termination of Gaussian 03 at Mon Jun 10 09:56:55 2013.
