 Gaussian 03, Revision D.01,
 Gaussian 03:  AM64L-G03RevD.01 13-Oct-2005

 -------------------------------------
 # freq nosymm b3lyp/cbsb7 iop(7/33=1)
 -------------------------------------

 -------------------
 Title Card Required
 -------------------
 Symbolic Z-matrix:
 Charge =  0 Multiplicity = 2

                          Input orientation:
 ---------------------------------------------------------------------
 Center     Atomic     Atomic              Coordinates (Angstroms)
 Number     Number      Type              X           Y           Z
 ---------------------------------------------------------------------
    1          8             0       -0.984106    1.749955    0.842802
    2          6             0       -1.156271    0.773589   -0.082559
    3          1             0       -2.218758    0.498093   -0.209592
    4          1             0       -0.867286    1.226345   -1.054526
    5          6             0       -0.285462   -0.490417    0.127676
    6          6             0        1.200064   -0.146351    0.180662
    7          1             0        1.794593   -1.043113    0.372342
    8          1             0        1.527441    0.301728   -0.759491
    9          1             0        1.383238    0.574889    0.978619
   10          6             0       -0.745769   -1.246411    1.373487
   11          1             0       -0.634575   -0.600007    2.246892
   12          1             0       -1.795292   -1.534783    1.282343
   13          1             0       -0.147957   -2.147832    1.521855
   14          8             0       -0.587046   -1.420290   -0.937050
   15          8             0       -0.252684   -0.812543   -2.216019
   16          1             0        0.527978   -1.328219   -2.459406
 ---------------------------------------------------------------------

 SCF Done:  E(UB+HF-LYP) =  -383.460228955     A.U. after   32 cycles

 Alpha  occ. eigenvalues --  -19.18365 -19.18060 -19.16092 -10.24263 -10.22715
 Alpha  occ. eigenvalues --  -10.17283 -10.16804  -1.12812  -1.03541  -0.93037
 Alpha  occ. eigenvalues --   -0.78313  -0.70673  -0.68247  -0.57734  -0.53334
 Alpha  occ. eigenvalues --   -0.50400  -0.48946  -0.46350  -0.45498  -0.43404
 Alpha  occ. eigenvalues --   -0.40221  -0.40041  -0.38694  -0.38557  -0.36148
 Alpha  occ. eigenvalues --   -0.33626  -0.31184  -0.29391  -0.26964
 Alpha virt. eigenvalues --   -0.00032   0.03675   0.06046   0.08359   0.09070
 Alpha virt. eigenvalues --    0.09546   0.09974   0.10902   0.13965   0.15299
 Alpha virt. eigenvalues --    0.15741   0.18061   0.21321   0.23059   0.25089

  Beta  occ. eigenvalues --  -19.18350 -19.18040 -19.13812 -10.24239 -10.22758
  Beta  occ. eigenvalues --  -10.17275 -10.16807  -1.12778  -0.98770  -0.92870
  Beta  occ. eigenvalues --   -0.78036  -0.70646  -0.66922  -0.57462  -0.52946
  Beta  occ. eigenvalues --   -0.49127  -0.47884  -0.46068  -0.44281  -0.41666
  Beta  occ. eigenvalues --   -0.40017  -0.39208  -0.38635  -0.37988  -0.35393
  Beta  occ. eigenvalues --   -0.32249  -0.28925  -0.25885
  Beta virt. eigenvalues --   -0.14193  -0.00006   0.03729   0.06151   0.08432
  Beta virt. eigenvalues --    0.09236   0.09596   0.10220   0.10980   0.14108
  Beta virt. eigenvalues --    0.15580   0.15873   0.18296   0.21585   0.23174

 Mulliken atomic charges:
              1
     1  O   -0.243080
     2  C    0.007907
     3  H    0.127082
     4  H    0.167261
     5  C    0.001390
     6  C   -0.266604
     7  H    0.109537
     8  H    0.107065
     9  H    0.127109
    10  C   -0.259015
    11  H    0.124593
    12  H    0.120879
    13  H    0.117461
    14  O   -0.253819
    15  O   -0.260954
    16  H    0.273188
 Sum of Mulliken charges=   0.00000

 Dipole moment (field-independent basis, Debye):
    X=     1.5726    Y=    -1.2294    Z=    -0.5077  Tot=     2.0597
 Quadrupole moment (field-independent basis, Debye-Ang):
   XX=   -41.9788   YY=   -46.5174   ZZ=   -41.9894
   XY=    -1.2229   XZ=    -3.1197   YZ=    -2.4362

  Exact polarizability:  57.538  -2.858  57.959  -3.235   1.966  64.839
 Approx polarizability:  74.085   0.041  81.560  -2.981   4.396  93.536

                     1                      2                      3
                     A                      A                      A
 Frequencies --   109.1984               147.1008               206.9141
 Red. masses --     3.2874                 3.9987                 1.0990
 Frc consts  --     0.0231                 0.0510                 0.0277
 IR Inten    --     3.5799                 3.5751                 8.7527

                     4                      5                      6
                     A                      A                      A
 Frequencies --   220.5733               236.7655               274.8129
 Red. masses --     3.3550                 1.1029                 1.3411
 Frc consts  --     0.0962                 0.0364                 0.0597
 IR Inten    --    14.1125                49.1428                40.4433

                     7                      8                      9
                     A                      A                      A
 Frequencies --   278.9743               339.4083               355.7012
 Red. masses --     2.3105                 2.3762                 2.5481
 Frc consts  --     0.1059                 0.1613                 0.1899
 IR Inten    --    28.8326                 3.2475                 1.6769

                    10                     11                     12
                     A                      A                      A
 Frequencies --   431.7265               478.7000               568.6945
 Red. masses --     3.2901                 3.4766                 4.0182
 Frc consts  --     0.3613                 0.4694                 0.7657
 IR Inten    --    10.1335                 6.0246                 3.4839

                    13                     14                     15
                     A                      A                      A
 Frequencies --   731.2157               748.3780               864.9657
 Red. masses --     2.2852                 2.6568                 2.8513
 Frc consts  --     0.7199                 0.8767                 1.2569
 IR Inten    --    30.2260                21.1190                12.2736

                    16                     17                     18
                     A                      A                      A
 Frequencies --   918.9248               938.6971               967.9245
 Red. masses --     6.1269                 1.6143                 2.1376
 Frc consts  --     3.0483                 0.8381                 1.1799
 IR Inten    --     5.7499                 0.7657                 1.7304

                    19                     20                     21
                     A                      A                      A
 Frequencies --  1007.1866              1078.2168              1088.7655
 Red. masses --     1.2698                 1.3505                 2.6159
 Frc consts  --     0.7589                 0.9250                 1.8270
 IR Inten    --     0.0997                11.9965                15.4162

                    22                     23                     24
                     A                      A                      A
 Frequencies --  1177.8874              1211.6379              1265.8210
 Red. masses --     2.2709                 2.2248                 2.3621
 Frc consts  --     1.8564                 1.9244                 2.2300
 IR Inten    --    28.0518                67.0069                11.6318

                    25                     26                     27
                     A                      A                      A
 Frequencies --  1322.2678              1354.8970              1357.2759
 Red. masses --     1.5979                 1.1791                 1.0843
 Frc consts  --     1.6460                 1.2753                 1.1769
 IR Inten    --     8.7823                62.2887                 9.7274

                    28                     29                     30
                     A                      A                      A
 Frequencies --  1393.7201              1411.0277              1480.7632
 Red. masses --     1.3356                 1.2506                 1.0520
 Frc consts  --     1.5285                 1.4670                 1.3590
 IR Inten    --    16.8023                 9.4372                 2.9150

                    31                     32                     33
                     A                      A                      A
 Frequencies --  1488.6371              1499.4959              1515.1032
 Red. masses --     1.0469                 1.0547                 1.0545
 Frc consts  --     1.3669                 1.3972                 1.4262
 IR Inten    --     1.3157                 5.6488                 6.1563

                    34                     35                     36
                     A                      A                      A
 Frequencies --  2877.6071              2935.5266              3037.8054
 Red. masses --     1.0637                 1.0817                 1.0340
 Frc consts  --     5.1894                 5.4921                 5.6218
 IR Inten    --    18.5860                25.5574                15.8900

                    37                     38                     39
                     A                      A                      A
 Frequencies --  3042.1022              3108.2514              3112.1599
 Red. masses --     1.0354                 1.1023                 1.1027
 Frc consts  --     5.6453                 6.2748                 6.2926
 IR Inten    --    12.1344                12.9227                19.5205

                    40                     41                     42
                     A                      A                      A
 Frequencies --  3115.2876              3122.1288              3774.3687
 Red. masses --     1.1026                 1.1008                 1.0688
 Frc consts  --     6.3047                 6.3223                 8.9713
 IR Inten    --    15.7468                12.6556                48.5998

 - Thermochemistry -
 -------------------
 Temperature   298.150 Kelvin.  Pressure   1.00000 Atm.
 Atom  1 has atomic number  8 and mass  15.99491

 Molecular mass:   105.05517 amu.
 Principal axes and moments of inertia in atomic units:
                           1         2         3
     EIGENVALUES --   538.01945 860.17500 987.02055
           X           -0.19742  -0.19670   0.96038
           Y            0.63936   0.71680   0.27824
           Z            0.74314  -0.66896   0.01575
 This molecule is an asymmetric top.
 Rotational symmetry number  1.
 Warning -- assumption of classical behavior for rotation
           may cause significant error
 Rotational temperatures (Kelvin)      0.16099     0.10069     0.08775
 Rotational constants (GHZ):           3.35442     2.09811     1.82847
 Zero-point vibrational energy     338522.9 (Joules/Mol)
                                   80.90892 (Kcal/Mol)
 Warning -- explicit consideration of  12 degrees of freedom as
           vibrations may cause significant error
 Vibrational temperatures:    157.11   211.64   297.70   317.36   340.65
          (Kelvin)            395.39   401.38   488.33   511.77   621.16
                              688.74   818.22  1052.06  1076.75  1244.49
                             1322.13  1350.57  1392.63  1449.12  1551.31
                             1566.49  1694.72  1743.27  1821.23  1902.45
                             1949.39  1952.81  2005.25  2030.15  2130.49
                             2141.81  2157.44  2179.89  4140.23  4223.56
                             4370.72  4376.90  4472.08  4477.70  4482.20
                             4492.04  5430.47

 Zero-point correction=                           0.128937 (Hartree/Particle)
 Thermal correction to Energy=                    0.137640
 Thermal correction to Enthalpy=                  0.138584
 Thermal correction to Gibbs Free Energy=         0.095931
 Sum of electronic and zero-point Energies=           -383.331292
 Sum of electronic and thermal Energies=              -383.322589
 Sum of electronic and thermal Enthalpies=            -383.321645
 Sum of electronic and thermal Free Energies=         -383.364298

                     E (Thermal)             CV                S
                      KCal/Mol        Cal/Mol-Kelvin    Cal/Mol-Kelvin
 Total                   86.370             31.461             89.770
 Electronic               0.000              0.000              1.377
 Translational            0.889              2.981             39.865
 Rotational               0.889              2.981             27.615
 Vibrational             84.593             25.499             20.913
 Vibration  1             0.606              1.942              3.283
 Vibration  2             0.617              1.906              2.709
 Vibration  3             0.641              1.830              2.071
 Vibration  4             0.647              1.810              1.954
 Vibration  5             0.656              1.784              1.827
 Vibration  6             0.677              1.720              1.566
 Vibration  7             0.679              1.712              1.540
 Vibration  8             0.719              1.597              1.215
 Vibration  9             0.731              1.564              1.141
 Vibration 10             0.793              1.401              0.853
 Vibration 11             0.835              1.297              0.714
 Vibration 12             0.925              1.099              0.507

 Optimization completed.
    -- Stationary point found.
 Normal termination of Gaussian 03 at Mon Jun 10 09:54:23 2013.
