 Gaussian 03, Revision D.01,
 Gaussian 03:  AM64L-G03RevD.01 13-Oct-2005

 -------------------------------------
 # freq nosymm b3lyp/cbsb7 iop(7/33=1)
 -------------------------------------

 -------
 NBO NRT
 -------
 Symbolic Z-matrix:
 Charge =  0 Multiplicity = 1

                          Input orientation:
 ---------------------------------------------------------------------
 Center     Atomic     Atomic              Coordinates (Angstroms)
 Number     Number      Type              X           Y           Z
 ---------------------------------------------------------------------
    1          8             0       -4.488160    0.508380    0.790860
    2          6             0       -3.909160    1.613610    0.117020
    3          6             0       -2.446780    1.825480    0.405730
    4          6             0       -1.747690    1.151330    1.312490
    5          1             0       -4.027810   -0.283800    0.494100
    6          1             0       -4.053860    1.538500   -0.972420
    7          1             0       -4.477400    2.492040    0.441760
    8          1             0       -1.963900    2.594860   -0.194330
    9          1             0       -2.216410    0.395300    1.932770
   10          1             0       -0.693760    1.343180    1.474650
 ---------------------------------------------------------------------

 SCF Done:  E(RB+HF-LYP) =  -193.175777512     A.U. after   13 cycles

 Alpha  occ. eigenvalues --  -19.11744 -10.22342 -10.17676 -10.16387  -1.02627
 Alpha  occ. eigenvalues --   -0.78407  -0.68683  -0.56785  -0.50241  -0.48493
 Alpha  occ. eigenvalues --   -0.44606  -0.40827  -0.37907  -0.33851  -0.28650
 Alpha  occ. eigenvalues --   -0.26484
 Alpha virt. eigenvalues --    0.00738   0.03823   0.06085   0.08306   0.10247
 Alpha virt. eigenvalues --    0.11802   0.13884   0.18202   0.24481   0.29613
 Alpha virt. eigenvalues --    0.34767   0.36155   0.37249   0.39953   0.41702

 Mulliken atomic charges:
              1
     1  O   -0.392663
     2  C    0.033752
     3  C   -0.204981
     4  C   -0.200682
     5  H    0.232795
     6  H    0.101612
     7  H    0.121826
     8  H    0.099017
     9  H    0.101587
    10  H    0.107736
 Sum of Mulliken charges=   0.00000

 Dipole moment (field-independent basis, Debye):
    X=     0.9897    Y=    -0.0306    Z=    -1.1767  Tot=     1.5379
 Quadrupole moment (field-independent basis, Debye-Ang):
   XX=   -33.8320   YY=   -22.5498   ZZ=   -26.8763
   XY=     0.6052   XZ=     5.8909   YZ=    -2.0571

  Exact polarizability:  41.781  -1.672  35.319   7.530  -8.090  35.848
 Approx polarizability:  54.639  -5.511  50.681  10.794 -13.723  52.416

                     1                      2                      3
                     A                      A                      A
 Frequencies --   195.3194               281.9567               350.6497
 Red. masses --     1.6650                 3.2229                 1.1387
 Frc consts  --     0.0374                 0.1510                 0.0825
 IR Inten    --     1.7611                 1.4427               129.8989

                     4                      5                      6
                     A                      A                      A
 Frequencies --   579.9945               616.8690               886.7745
 Red. masses --     1.2130                 2.6182                 3.2548
 Frc consts  --     0.2404                 0.5870                 1.5080
 IR Inten    --    25.3151                 5.6692                 4.6558

                     7                      8                      9
                     A                      A                      A
 Frequencies --   949.7473               993.3907              1014.4824
 Red. masses --     1.3062                 1.4489                 1.7783
 Frc consts  --     0.6942                 0.8424                 1.0783
 IR Inten    --    42.1116                 5.6900                40.0756

                    10                     11                     12
                     A                      A                      A
 Frequencies --  1039.7779              1129.9672              1212.1543
 Red. masses --     1.1641                 2.3815                 1.1244
 Frc consts  --     0.7415                 1.7916                 0.9734
 IR Inten    --    26.6472                49.1108                16.1396

                    13                     14                     15
                     A                      A                      A
 Frequencies --  1316.4872              1378.9425              1412.5878
 Red. masses --     1.2949                 1.2693                 1.2816
 Frc consts  --     1.3222                 1.4221                 1.5067
 IR Inten    --     0.2748                 2.7360                36.6344

                    16                     17                     18
                     A                      A                      A
 Frequencies --  1442.1792              1494.3707              1708.8917
 Red. masses --     1.1964                 1.0768                 4.5974
 Frc consts  --     1.4662                 1.4168                 7.9103
 IR Inten    --     4.1484                 5.2710                 7.3486

                    19                     20                     21
                     A                      A                      A
 Frequencies --  2959.7664              3043.0333              3125.6835
 Red. masses --     1.0731                 1.0877                 1.0782
 Frc consts  --     5.5388                 5.9344                 6.2063
 IR Inten    --    65.1760                24.3525                20.1989

                    22                     23                     24
                     A                      A                      A
 Frequencies --  3141.8818              3222.7247              3815.8995
 Red. masses --     1.0708                 1.1159                 1.0660
 Frc consts  --     6.2276                 6.8282                 9.1458
 IR Inten    --     4.0573                11.4239                19.4044

 - Thermochemistry -
 -------------------
 Temperature   298.150 Kelvin.  Pressure   1.00000 Atm.
 Atom  1 has atomic number  8 and mass  15.99491

 Molecular mass:    58.04186 amu.
 Principal axes and moments of inertia in atomic units:
                           1         2         3
     EIGENVALUES --   106.76683 305.44474 395.67999
           X            0.95773  -0.05372  -0.28260
           Y            0.22175   0.76362   0.60639
           Z            0.18322  -0.64343   0.74326
 This molecule is an asymmetric top.
 Rotational symmetry number  1.
 Rotational temperatures (Kelvin)      0.81124     0.28357     0.21890
 Rotational constants (GHZ):          16.90358     5.90857     4.56111
 Zero-point vibrational energy     223184.5 (Joules/Mol)
                                   53.34237 (Kcal/Mol)
 Warning -- explicit consideration of   5 degrees of freedom as
           vibrations may cause significant error
 Vibrational temperatures:    281.02   405.67   504.51   834.48   887.54
          (Kelvin)           1275.87  1366.47  1429.27  1459.61  1496.01
                             1625.77  1744.02  1894.13  1983.99  2032.40
                             2074.97  2150.06  2458.71  4258.44  4378.24
                             4497.16  4520.46  4636.78  5490.22

 Zero-point correction=                           0.085006 (Hartree/Particle)
 Thermal correction to Energy=                    0.089816
 Thermal correction to Enthalpy=                  0.090760
 Thermal correction to Gibbs Free Energy=         0.058142
 Sum of electronic and zero-point Energies=           -193.090771
 Sum of electronic and thermal Energies=              -193.085962
 Sum of electronic and thermal Enthalpies=            -193.085017
 Sum of electronic and thermal Free Energies=         -193.117636

                     E (Thermal)             CV                S
                      KCal/Mol        Cal/Mol-Kelvin    Cal/Mol-Kelvin
 Total                   56.360             16.207             68.651
 Electronic               0.000              0.000              0.000
 Translational            0.889              2.981             38.096
 Rotational               0.889              2.981             24.071
 Vibrational             54.583             10.246              6.483
 Vibration  1             0.636              1.846              2.177
 Vibration  2             0.681              1.707              1.522
 Vibration  3             0.728              1.574              1.163
 Vibration  4             0.937              1.075              0.485
 Vibration  5             0.977              0.996              0.422

 Optimization completed.
    -- Stationary point found.
 Normal termination of Gaussian 03 at Thu Mar 14 20:35:05 2019.
