 Gaussian 03, Revision D.01,
 Gaussian 03:  AM64L-G03RevD.01 13-Oct-2005

 -------------------------------------
 # freq nosymm b3lyp/cbsb7 iop(7/33=1)
 -------------------------------------

 -------------------
 Title Card Required
 -------------------
 Symbolic Z-matrix:
 Charge =  0 Multiplicity = 2

                          Input orientation:
 ---------------------------------------------------------------------
 Center     Atomic     Atomic              Coordinates (Angstroms)
 Number     Number      Type              X           Y           Z
 ---------------------------------------------------------------------
    1          6             0       -0.829337    0.342726    0.025471
    2          1             0       -1.751372   -0.213717   -0.173825
    3          1             0        0.012041   -0.355430    0.086090
    4          6             0       -0.964898    1.175334    1.308488
    5          1             0       -0.032098    1.758373    1.395780
    6          6             0       -1.065959    0.242359    2.522744
    7          1             0       -0.195554   -0.415368    2.591731
    8          1             0       -1.120272    0.820591    3.448047
    9          1             0       -1.964456   -0.379368    2.465715
   10          6             0       -2.143181    2.104141    1.249893
   11          1             0       -2.596725    2.462399    2.167736
   12          8             0       -2.257387    3.005346    0.229767
   13          1             0       -1.769676    2.657844   -0.532721
   14          8             0       -0.682203    1.143001   -1.159560
   15          8             0        0.645485    1.743175   -1.125845
   16          1             0        1.033538    1.326627   -1.907927
 ---------------------------------------------------------------------

 SCF Done:  E(UB+HF-LYP) =  -383.468626445     A.U. after   16 cycles

 Alpha  occ. eigenvalues --  -19.19829 -19.18683 -19.12749 -10.23305 -10.20209
 Alpha  occ. eigenvalues --  -10.18456 -10.16968  -1.13766  -1.04110  -0.93441
 Alpha  occ. eigenvalues --   -0.80368  -0.68384  -0.66444  -0.59934  -0.54620
 Alpha  occ. eigenvalues --   -0.50398  -0.49717  -0.47570  -0.44477  -0.42723
 Alpha  occ. eigenvalues --   -0.41084  -0.39068  -0.38728  -0.38415  -0.34873
 Alpha  occ. eigenvalues --   -0.33057  -0.32050  -0.28435  -0.15760
 Alpha virt. eigenvalues --   -0.00658   0.03368   0.04637   0.07475   0.08823
 Alpha virt. eigenvalues --    0.09732   0.10537   0.12414   0.13053   0.13580
 Alpha virt. eigenvalues --    0.16337   0.20595   0.21440   0.23445   0.24855

  Beta  occ. eigenvalues --  -19.19831 -19.18680 -19.12188 -10.23250 -10.18927
  Beta  occ. eigenvalues --  -10.18508 -10.16959  -1.13762  -1.02872  -0.93420
  Beta  occ. eigenvalues --   -0.79961  -0.68326  -0.64830  -0.59370  -0.54470
  Beta  occ. eigenvalues --   -0.49929  -0.49629  -0.47022  -0.44063  -0.42322
  Beta  occ. eigenvalues --   -0.40646  -0.38711  -0.38452  -0.36714  -0.33162
  Beta  occ. eigenvalues --   -0.32475  -0.31608  -0.28283
  Beta virt. eigenvalues --   -0.02226  -0.00648   0.03554   0.04876   0.07684
  Beta virt. eigenvalues --    0.08981   0.09901   0.10879   0.12576   0.13365
  Beta virt. eigenvalues --    0.13652   0.16413   0.20798   0.21630   0.24438

 Mulliken atomic charges:
              1
     1  C    0.043859
     2  H    0.126833
     3  H    0.108973
     4  C   -0.246927
     5  H    0.134917
     6  C   -0.293078
     7  H    0.106798
     8  H    0.117750
     9  H    0.107889
    10  C    0.028931
    11  H    0.100166
    12  O   -0.329607
    13  H    0.254066
    14  O   -0.279905
    15  O   -0.255306
    16  H    0.274639
 Sum of Mulliken charges=   0.00000

 Dipole moment (field-independent basis, Debye):
    X=     1.9809    Y=    -2.5468    Z=    -0.4626  Tot=     3.2595
 Quadrupole moment (field-independent basis, Debye-Ang):
   XX=   -47.3000   YY=   -52.5305   ZZ=   -38.1899
   XY=     5.9773   XZ=    -2.7432   YZ=    -0.4858

  Exact polarizability:  58.136  -2.282  56.703  -7.038  -4.465  62.857
 Approx polarizability:  84.247   1.052  78.126  -5.245  -4.348  80.298

                     1                      2                      3
                     A                      A                      A
 Frequencies --    85.8785               129.6338               151.5424
 Red. masses --     6.0073                 3.1402                 3.2250
 Frc consts  --     0.0261                 0.0311                 0.0436
 IR Inten    --     0.4394                 1.3247                 0.8653

                     4                      5                      6
                     A                      A                      A
 Frequencies --   207.1336               209.1703               249.2252
 Red. masses --     1.1643                 1.0639                 4.6118
 Frc consts  --     0.0294                 0.0274                 0.1688
 IR Inten    --   100.6490                 1.7072                21.5210

                     7                      8                      9
                     A                      A                      A
 Frequencies --   301.2295               352.9695               418.2848
 Red. masses --     2.4707                 3.9980                 1.7365
 Frc consts  --     0.1321                 0.2935                 0.1790
 IR Inten    --     1.1505                 2.4615                 9.5151

                    10                     11                     12
                     A                      A                      A
 Frequencies --   463.9849               544.1243               593.8224
 Red. masses --     3.1930                 2.7179                 1.8471
 Frc consts  --     0.4050                 0.4741                 0.3837
 IR Inten    --     2.7784                 5.8807                 9.1486

                    13                     14                     15
                     A                      A                      A
 Frequencies --   675.5192               833.5648               858.3613
 Red. masses --     1.1906                 2.3702                 4.5843
 Frc consts  --     0.3201                 0.9703                 1.9901
 IR Inten    --    95.2440                12.9655                 8.9487

                    16                     17                     18
                     A                      A                      A
 Frequencies --   935.4411               949.0781               997.2910
 Red. masses --     2.0470                 1.6063                 3.9959
 Frc consts  --     1.0553                 0.8525                 2.3416
 IR Inten    --     4.3307                 0.8417                27.9934

                    19                     20                     21
                     A                      A                      A
 Frequencies --  1080.6315              1109.1836              1168.7712
 Red. masses --     2.7350                 1.9367                 2.0479
 Frc consts  --     1.8817                 1.4039                 1.6482
 IR Inten    --     3.1939                 1.5110                43.9839

                    22                     23                     24
                     A                      A                      A
 Frequencies --  1210.5842              1275.2188              1292.3390
 Red. masses --     1.8243                 1.2388                 1.3760
 Frc consts  --     1.5752                 1.1869                 1.3540
 IR Inten    --    91.6547                10.0611                 2.4959

                    25                     26                     27
                     A                      A                      A
 Frequencies --  1329.1902              1366.0686              1371.1462
 Red. masses --     1.3291                 1.4045                 1.2070
 Frc consts  --     1.3835                 1.5443                 1.3370
 IR Inten    --     1.4359                 7.3029                42.9031

                    28                     29                     30
                     A                      A                      A
 Frequencies --  1401.5480              1410.9396              1456.1988
 Red. masses --     1.4850                 1.2230                 1.1481
 Frc consts  --     1.7186                 1.4344                 1.4344
 IR Inten    --    22.3142                10.9856                23.7006

                    31                     32                     33
                     A                      A                      A
 Frequencies --  1470.7553              1494.8745              1507.3578
 Red. masses --     1.2465                 1.0471                 1.0658
 Frc consts  --     1.5886                 1.3787                 1.4268
 IR Inten    --    82.2239                 7.7430                15.0761

                    34                     35                     36
                     A                      A                      A
 Frequencies --  2933.9654              3020.9700              3027.9831
 Red. masses --     1.0792                 1.0536                 1.0388
 Frc consts  --     5.4735                 5.6653                 5.6117
 IR Inten    --    28.3451                24.5378                41.1538

                    37                     38                     39
                     A                      A                      A
 Frequencies --  3078.3340              3090.1999              3097.8279
 Red. masses --     1.1077                 1.1017                 1.1017
 Frc consts  --     6.1847                 6.1988                 6.2293
 IR Inten    --    10.8535                39.1940                26.7644

                    40                     41                     42
                     A                      A                      A
 Frequencies --  3163.8906              3706.4454              3771.3273
 Red. masses --     1.0883                 1.0657                 1.0688
 Frc consts  --     6.4188                 8.6255                 8.9563
 IR Inten    --    30.6247               186.9197                43.4713

 - Thermochemistry -
 -------------------
 Temperature   298.150 Kelvin.  Pressure   1.00000 Atm.
 Atom  1 has atomic number  6 and mass  12.00000

 Molecular mass:   105.05517 amu.
 Principal axes and moments of inertia in atomic units:
                           1         2         3
     EIGENVALUES --   559.98577 868.664511239.29476
           X           -0.45087  -0.56056   0.69462
           Y           -0.09959   0.80494   0.58495
           Z            0.88702  -0.19456   0.41874
 This molecule is an asymmetric top.
 Rotational symmetry number  1.
 Warning -- assumption of classical behavior for rotation
           may cause significant error
 Rotational temperatures (Kelvin)      0.15467     0.09971     0.06989
 Rotational constants (GHZ):           3.22283     2.07760     1.45626
 Zero-point vibrational energy     345673.0 (Joules/Mol)
                                   82.61782 (Kcal/Mol)
 Warning -- explicit consideration of  12 degrees of freedom as
           vibrations may cause significant error
 Vibrational temperatures:    123.56   186.51   218.04   298.02   300.95
          (Kelvin)            358.58   433.40   507.84   601.82   667.57
                              782.87   854.38   971.92  1199.31  1234.99
                             1345.89  1365.51  1434.88  1554.79  1595.87
                             1681.60  1741.76  1834.75  1859.39  1912.41
                             1965.47  1972.77  2016.51  2030.02  2095.14
                             2116.09  2150.79  2168.75  4221.32  4346.50
                             4356.59  4429.03  4446.10  4457.08  4552.13
                             5332.74  5426.09

 Zero-point correction=                           0.131660 (Hartree/Particle)
 Thermal correction to Energy=                    0.140393
 Thermal correction to Enthalpy=                  0.141337
 Thermal correction to Gibbs Free Energy=         0.098093
 Sum of electronic and zero-point Energies=           -383.336967
 Sum of electronic and thermal Energies=              -383.328234
 Sum of electronic and thermal Enthalpies=            -383.327289
 Sum of electronic and thermal Free Energies=         -383.370533

                     E (Thermal)             CV                S
                      KCal/Mol        Cal/Mol-Kelvin    Cal/Mol-Kelvin
 Total                   88.098             30.871             91.015
 Electronic               0.000              0.000              1.377
 Translational            0.889              2.981             39.865
 Rotational               0.889              2.981             27.891
 Vibrational             86.320             24.909             21.881
 Vibration  1             0.601              1.959              3.752
 Vibration  2             0.612              1.924              2.951
 Vibration  3             0.619              1.901              2.653
 Vibration  4             0.641              1.830              2.069
 Vibration  5             0.642              1.827              2.051
 Vibration  6             0.662              1.764              1.736
 Vibration  7             0.693              1.671              1.410
 Vibration  8             0.729              1.569              1.153
 Vibration  9             0.781              1.431              0.898
 Vibration 10             0.822              1.330              0.755
 Vibration 11             0.899              1.153              0.556
 Vibration 12             0.951              1.045              0.460

 Optimization completed.
    -- Stationary point found.
 Normal termination of Gaussian 03 at Wed Aug 14 07:48:49 2013.
