 Gaussian 03, Revision D.01,
 Gaussian 03:  AM64L-G03RevD.01 13-Oct-2005

 -------------------------------------
 # freq nosymm b3lyp/cbsb7 iop(7/33=1)
 -------------------------------------

 -------------------
 Title Card Required
 -------------------
 Symbolic Z-matrix:
 Charge =  0 Multiplicity = 1

                          Input orientation:
 ---------------------------------------------------------------------
 Center     Atomic     Atomic              Coordinates (Angstroms)
 Number     Number      Type              X           Y           Z
 ---------------------------------------------------------------------
    1          6             0       -0.152004   -0.587160    1.291457
    2          1             0       -1.137943   -1.060600    1.337146
    3          1             0       -0.025251    0.079308    2.143336
    4          1             0        0.589587   -1.390983    1.338291
    5          6             0       -0.001389    0.199011    0.000397
    6          6             0       -0.147073   -0.586430   -1.291666
    7          1             0       -1.130629   -1.064564   -1.339281
    8          1             0       -0.021907    0.081424   -2.142690
    9          1             0        0.598455   -1.386661   -1.338161
   10          8             0        0.222339    1.387273    0.001172
 ---------------------------------------------------------------------

 SCF Done:  E(RB+HF-LYP) =  -193.213027702     A.U. after   13 cycles

 Alpha  occ. eigenvalues --  -19.10759 -10.26343 -10.17699 -10.17698  -1.04701
 Alpha  occ. eigenvalues --   -0.77305  -0.71553  -0.53638  -0.46595  -0.46492
 Alpha  occ. eigenvalues --   -0.45529  -0.40908  -0.40137  -0.38446  -0.35638
 Alpha  occ. eigenvalues --   -0.25273
 Alpha virt. eigenvalues --   -0.01883   0.03261   0.08424   0.09605   0.09938
 Alpha virt. eigenvalues --    0.12578   0.13188   0.16676   0.23503   0.25271
 Alpha virt. eigenvalues --    0.27784   0.30399   0.34717   0.38439   0.40906

 Mulliken atomic charges:
              1
     1  C   -0.318294
     2  H    0.122413
     3  H    0.133795
     4  H    0.122259
     5  C    0.167711
     6  C   -0.318285
     7  H    0.122262
     8  H    0.133796
     9  H    0.122409
    10  O   -0.288066
 Sum of Mulliken charges=   0.00000

 Dipole moment (field-independent basis, Debye):
    X=    -0.5265    Y=    -2.7945    Z=    -0.0018  Tot=     2.8436
 Quadrupole moment (field-independent basis, Debye-Ang):
   XX=   -24.4030   YY=   -28.6548   ZZ=   -24.0228
   XY=    -0.7132   XZ=    -0.0027   YZ=    -0.0034

  Exact polarizability:  29.725   2.147  40.718  -0.022   0.005  40.539
 Approx polarizability:  42.143   4.253  63.924  -0.013   0.014  47.673

                     1                      2                      3
                     A                      A                      A
 Frequencies --    35.3196               139.0639               378.3779
 Red. masses --     1.0171                 1.1271                 2.1885
 Frc consts  --     0.0007                 0.0128                 0.1846
 IR Inten    --     0.0000                 0.0378                 1.1505

                     4                      5                      6
                     A                      A                      A
 Frequencies --   488.9599               535.8928               779.5487
 Red. masses --     1.9816                 3.5582                 3.6305
 Frc consts  --     0.2791                 0.6021                 1.2999
 IR Inten    --     0.2636                15.0663                 1.4823

                     7                      8                      9
                     A                      A                      A
 Frequencies --   881.4184               882.3903              1083.2902
 Red. masses --     1.2117                 1.5722                 1.5598
 Frc consts  --     0.5546                 0.7212                 1.0784
 IR Inten    --     0.0798                 9.1880                 0.0300

                    10                     11                     12
                     A                      A                      A
 Frequencies --  1117.5539              1230.6455              1382.6886
 Red. masses --     1.9820                 2.7944                 1.2278
 Frc consts  --     1.4585                 2.4934                 1.3830
 IR Inten    --     2.9707                76.0134                19.5527

                    13                     14                     15
                     A                      A                      A
 Frequencies --  1384.9577              1460.3674              1466.7821
 Red. masses --     1.4093                 1.0428                 1.0525
 Frc consts  --     1.5926                 1.3103                 1.3341
 IR Inten    --    64.5698                 1.1895                 0.0083

                    16                     17                     18
                     A                      A                      A
 Frequencies --  1470.5170              1487.8790              1804.1109
 Red. masses --     1.0645                 1.0450                 9.7827
 Frc consts  --     1.3562                 1.3630                18.7600
 IR Inten    --    28.5347                22.5384               174.2873

                    19                     20                     21
                     A                      A                      A
 Frequencies --  3024.3894              3031.4801              3079.6011
 Red. masses --     1.0372                 1.0370                 1.0988
 Frc consts  --     5.5896                 5.6150                 6.1401
 IR Inten    --     2.0343                 7.0908                 0.0006

                    22                     23                     24
                     A                      A                      A
 Frequencies --  3086.9339              3140.1178              3141.2573
 Red. masses --     1.0990                 1.1015                 1.1020
 Frc consts  --     6.1703                 6.3994                 6.4065
 IR Inten    --    25.1177                13.0259                 9.8209

 - Thermochemistry -
 -------------------
 Temperature   298.150 Kelvin.  Pressure   1.00000 Atm.
 Atom  1 has atomic number  6 and mass  12.00000

 Molecular mass:    58.04186 amu.
 Principal axes and moments of inertia in atomic units:
                           1         2         3
     EIGENVALUES --   177.64141 212.94017 368.31454
           X           -0.00193   0.18513   0.98271
           Y           -0.00026   0.98271  -0.18513
           Z            1.00000   0.00061   0.00185
 This molecule is an asymmetric top.
 Rotational symmetry number  1.
 Rotational temperatures (Kelvin)      0.48758     0.40675     0.23516
 Rotational constants (GHZ):          10.15946     8.47534     4.90000
 Zero-point vibrational energy     218399.5 (Joules/Mol)
                                   52.19873 (Kcal/Mol)
 Warning -- explicit consideration of   5 degrees of freedom as
           vibrations may cause significant error
 Vibrational temperatures:     50.82   200.08   544.40   703.50   771.03
          (Kelvin)           1121.60  1268.16  1269.56  1558.61  1607.91
                             1770.62  1989.38  1992.64  2101.14  2110.37
                             2115.74  2140.72  2595.71  4351.42  4361.62
                             4430.85  4441.40  4517.92  4519.56

 Zero-point correction=                           0.083184 (Hartree/Particle)
 Thermal correction to Energy=                    0.088612
 Thermal correction to Enthalpy=                  0.089556
 Thermal correction to Gibbs Free Energy=         0.054561
 Sum of electronic and zero-point Energies=           -193.129844
 Sum of electronic and thermal Energies=              -193.124416
 Sum of electronic and thermal Enthalpies=            -193.123472
 Sum of electronic and thermal Free Energies=         -193.158467

                     E (Thermal)             CV                S
                      KCal/Mol        Cal/Mol-Kelvin    Cal/Mol-Kelvin
 Total                   55.605             16.881             73.653
 Electronic               0.000              0.000              0.000
 Translational            0.889              2.981             38.096
 Rotational               0.889              2.981             24.147
 Vibrational             53.827             10.920             11.409
 Vibration  1             0.594              1.982              5.506
 Vibration  2             0.615              1.914              2.817
 Vibration  3             0.749              1.516              1.046
 Vibration  4             0.845              1.275              0.686
 Vibration  5             0.891              1.171              0.574

 Optimization completed.
    -- Stationary point found.
 Normal termination of Gaussian 03 at Tue Aug 26 17:58:54 2014.
