 Gaussian 03, Revision D.01,
 Gaussian 03:  AM64L-G03RevD.01 13-Oct-2005

 -------------------------------------
 # freq nosymm b3lyp/cbsb7 iop(7/33=1)
 -------------------------------------

 -------------------
 Title Card Required
 -------------------
 Symbolic Z-matrix:
 Charge =  0 Multiplicity = 2

                          Input orientation:
 ---------------------------------------------------------------------
 Center     Atomic     Atomic              Coordinates (Angstroms)
 Number     Number      Type              X           Y           Z
 ---------------------------------------------------------------------
    1          6             0       -3.485869    1.283902    0.126489
    2          1             0       -3.031372    1.567088    1.086831
    3          1             0       -3.009232    1.882712   -0.654606
    4          8             0       -4.862169    1.592012    0.086178
    5          1             0       -5.287237    1.009694    0.729613
    6          6             0       -3.151130   -0.193593   -0.139196
    7          6             0       -1.650142   -0.399779   -0.295145
    8          1             0       -1.410761   -1.464888   -0.301808
    9          1             0       -1.311158    0.034960   -1.237688
   10          1             0       -1.100556    0.070777    0.523539
   11          6             0       -3.963972   -0.802101   -1.273263
   12          1             0       -3.746706   -0.275989   -2.205966
   13          1             0       -3.713457   -1.857628   -1.398898
   14          1             0       -5.029847   -0.705166   -1.073174
   15          8             0       -3.455760   -0.973781    1.108141
   16          8             0       -4.680787   -0.801992    1.556416
 ---------------------------------------------------------------------

 SCF Done:  E(UB+HF-LYP) =  -383.496029805     A.U. after   19 cycles

 Alpha  occ. eigenvalues --  -19.24291 -19.19593 -19.11479 -10.25522 -10.23021
 Alpha  occ. eigenvalues --  -10.18542 -10.17717  -1.20091  -1.02745  -0.89912
 Alpha  occ. eigenvalues --   -0.78652  -0.71808  -0.69790  -0.60043  -0.53194
 Alpha  occ. eigenvalues --   -0.52021  -0.49799  -0.48702  -0.46022  -0.43504
 Alpha  occ. eigenvalues --   -0.42312  -0.41592  -0.40578  -0.38640  -0.37575
 Alpha  occ. eigenvalues --   -0.34795  -0.29175  -0.28767  -0.27533
 Alpha virt. eigenvalues --    0.03130   0.05218   0.06047   0.07633   0.09497
 Alpha virt. eigenvalues --    0.10310   0.10565   0.12397   0.12972   0.14134
 Alpha virt. eigenvalues --    0.16440   0.17206   0.19777   0.21822   0.22490

  Beta  occ. eigenvalues --  -19.23215 -19.17721 -19.11468 -10.25557 -10.23003
  Beta  occ. eigenvalues --  -10.18542 -10.17689  -1.17333  -1.02705  -0.87712
  Beta  occ. eigenvalues --   -0.76850  -0.71712  -0.69728  -0.59296  -0.51797
  Beta  occ. eigenvalues --   -0.51348  -0.49116  -0.46224  -0.44227  -0.42805
  Beta  occ. eigenvalues --   -0.41918  -0.41038  -0.39536  -0.38315  -0.36414
  Beta  occ. eigenvalues --   -0.34294  -0.28316  -0.26695
  Beta virt. eigenvalues --   -0.12160   0.03208   0.05535   0.06284   0.07710
  Beta virt. eigenvalues --    0.09528   0.10567   0.11148   0.12465   0.13126
  Beta virt. eigenvalues --    0.14585   0.16681   0.17429   0.19819   0.22038

 Mulliken atomic charges:
              1
     1  C    0.056532
     2  H    0.110571
     3  H    0.111468
     4  O   -0.385136
     5  H    0.241663
     6  C   -0.094627
     7  C   -0.250784
     8  H    0.127399
     9  H    0.119732
    10  H    0.120122
    11  C   -0.209334
    12  H    0.114009
    13  H    0.115887
    14  H    0.126645
    15  O   -0.130301
    16  O   -0.173846
 Sum of Mulliken charges=   0.00000

 Dipole moment (field-independent basis, Debye):
    X=     2.1532    Y=    -0.2139    Z=    -1.4810  Tot=     2.6221
 Quadrupole moment (field-independent basis, Debye-Ang):
   XX=   -57.8558   YY=   -46.3992   ZZ=   -44.1844
   XY=     2.9553   XZ=     4.8094   YZ=     3.1882

  Exact polarizability:  63.304  -0.520  53.893  -5.274   0.176  55.963
 Approx polarizability:  90.690  -1.181  73.539  -9.586  -3.719  78.973

                     1                      2                      3
                     A                      A                      A
 Frequencies --   102.1250               159.5103               192.8916
 Red. masses --     6.5712                 2.3261                 1.1470
 Frc consts  --     0.0404                 0.0349                 0.0251
 IR Inten    --     0.7295                 5.7589                 1.5293

                     4                      5                      6
                     A                      A                      A
 Frequencies --   230.1622               252.4225               277.7703
 Red. masses --     1.1795                 2.7437                 3.4906
 Frc consts  --     0.0368                 0.1030                 0.1587
 IR Inten    --     1.0581                 0.7547                 4.8705

                     7                      8                      9
                     A                      A                      A
 Frequencies --   343.3461               370.9120               421.7836
 Red. masses --     2.6168                 3.1075                 2.9344
 Frc consts  --     0.1818                 0.2519                 0.3076
 IR Inten    --     2.3381                 2.6894                10.3350

                    10                     11                     12
                     A                      A                      A
 Frequencies --   459.5054               551.2228               577.0157
 Red. masses --     3.1538                 1.2053                 3.3876
 Frc consts  --     0.3923                 0.2158                 0.6645
 IR Inten    --     5.6927               115.5437                30.9146

                    13                     14                     15
                     A                      A                      A
 Frequencies --   738.7821               805.5073               893.0298
 Red. masses --     5.6539                 3.0376                 1.7185
 Frc consts  --     1.8182                 1.1612                 0.8075
 IR Inten    --     7.6458                 4.7946                 5.0220

                    16                     17                     18
                     A                      A                      A
 Frequencies --   948.9126               997.5493              1029.8398
 Red. masses --     1.3989                 1.4381                 1.4654
 Frc consts  --     0.7422                 0.8431                 0.9157
 IR Inten    --     0.7802                 0.7508                 8.5234

                    19                     20                     21
                     A                      A                      A
 Frequencies --  1096.1383              1147.1500              1197.5492
 Red. masses --     5.1361                 1.9697                 4.4994
 Frc consts  --     3.6359                 1.5272                 3.8018
 IR Inten    --    95.6408                11.9430                 8.1531

                    22                     23                     24
                     A                      A                      A
 Frequencies --  1235.4714              1255.1697              1272.4444
 Red. masses --     2.8775                 1.9419                 1.7509
 Frc consts  --     2.5878                 1.8026                 1.6703
 IR Inten    --    13.8838                 6.6848                31.5421

                    25                     26                     27
                     A                      A                      A
 Frequencies --  1387.7199              1405.7700              1420.2025
 Red. masses --     1.2658                 1.3211                 1.2334
 Frc consts  --     1.4362                 1.5382                 1.4657
 IR Inten    --     4.1611                19.5349                 7.4746

                    28                     29                     30
                     A                      A                      A
 Frequencies --  1448.7335              1478.9666              1484.0510
 Red. masses --     1.2151                 1.0561                 1.0451
 Frc consts  --     1.5025                 1.3611                 1.3562
 IR Inten    --    49.4564                 2.4218                 0.2596

                    31                     32                     33
                     A                      A                      A
 Frequencies --  1495.0775              1498.8125              1509.5327
 Red. masses --     1.0694                 1.0633                 1.0593
 Frc consts  --     1.4084                 1.4073                 1.4222
 IR Inten    --     1.2804                10.7009                14.8320

                    34                     35                     36
                     A                      A                      A
 Frequencies --  2986.6600              3040.6281              3046.9585
 Red. masses --     1.0690                 1.0350                 1.0371
 Frc consts  --     5.6183                 5.6378                 5.6730
 IR Inten    --    48.8871                11.8719                 9.8293

                    37                     38                     39
                     A                      A                      A
 Frequencies --  3071.7636              3109.7583              3110.5396
 Red. masses --     1.0939                 1.1029                 1.1023
 Frc consts  --     6.0814                 6.2843                 6.2840
 IR Inten    --    21.0020                 5.1978                20.8438

                    40                     41                     42
                     A                      A                      A
 Frequencies --  3118.0364              3142.4571              3764.8650
 Red. masses --     1.1022                 1.1000                 1.0652
 Frc consts  --     6.3134                 6.3999                 8.8955
 IR Inten    --    25.9273                 7.1076                57.6459

 - Thermochemistry -
 -------------------
 Temperature   298.150 Kelvin.  Pressure   1.00000 Atm.
 Atom  1 has atomic number  6 and mass  12.00000

 Molecular mass:   105.05517 amu.
 Principal axes and moments of inertia in atomic units:
                           1         2         3
     EIGENVALUES --   602.68232 718.05502 912.58568
           X            0.80312   0.23509   0.54747
           Y           -0.52282   0.71874   0.45833
           Z           -0.28574  -0.65433   0.70015
 This molecule is an asymmetric top.
 Rotational symmetry number  1.
 Warning -- assumption of classical behavior for rotation
           may cause significant error
 Rotational temperatures (Kelvin)      0.14371     0.12062     0.09491
 Rotational constants (GHZ):           2.99451     2.51337     1.97761
 Zero-point vibrational energy     347376.1 (Joules/Mol)
                                   83.02487 (Kcal/Mol)
 Warning -- explicit consideration of  12 degrees of freedom as
           vibrations may cause significant error
 Vibrational temperatures:    146.93   229.50   277.53   331.15   363.18
          (Kelvin)            399.65   494.00   533.66   606.85   661.12
                              793.09   830.20  1062.94  1158.94  1284.87
                             1365.27  1435.25  1481.71  1577.10  1650.49
                             1723.00  1777.57  1805.91  1830.76  1996.62
                             2022.59  2043.35  2084.40  2127.90  2135.22
                             2151.08  2156.45  2171.88  4297.13  4374.78
                             4383.89  4419.58  4474.24  4475.37  4486.15
                             4521.29  5416.79

 Zero-point correction=                           0.132309 (Hartree/Particle)
 Thermal correction to Energy=                    0.140633
 Thermal correction to Enthalpy=                  0.141577
 Thermal correction to Gibbs Free Energy=         0.099640
 Sum of electronic and zero-point Energies=           -383.363721
 Sum of electronic and thermal Energies=              -383.355397
 Sum of electronic and thermal Enthalpies=            -383.354452
 Sum of electronic and thermal Free Energies=         -383.396390

                     E (Thermal)             CV                S
                      KCal/Mol        Cal/Mol-Kelvin    Cal/Mol-Kelvin
 Total                   88.249             30.126             88.265
 Electronic               0.000              0.000              1.377
 Translational            0.889              2.981             39.865
 Rotational               0.889              2.981             27.471
 Vibrational             86.471             24.165             19.552
 Vibration  1             0.604              1.947              3.413
 Vibration  2             0.621              1.892              2.556
 Vibration  3             0.635              1.850              2.200
 Vibration  4             0.652              1.795              1.878
 Vibration  5             0.664              1.759              1.714
 Vibration  6             0.679              1.715              1.547
 Vibration  7             0.722              1.589              1.197
 Vibration  8             0.743              1.532              1.076
 Vibration  9             0.784              1.423              0.886
 Vibration 10             0.817              1.340              0.768
 Vibration 11             0.907              1.137              0.542
 Vibration 12             0.933              1.081              0.491

 Optimization completed.
    -- Stationary point found.
 Normal termination of Gaussian 03 at Mon Jun 10 10:27:07 2013.
