 Gaussian 03, Revision D.01,
 Gaussian 03:  AM64L-G03RevD.01 13-Oct-2005

 -------------------------------------
 # freq nosymm b3lyp/cbsb7 iop(7/33=1)
 -------------------------------------

 -------------------
 Title Card Required
 -------------------
 Symbolic Z-matrix:
 Charge =  0 Multiplicity = 2

                          Input orientation:
 ---------------------------------------------------------------------
 Center     Atomic     Atomic              Coordinates (Angstroms)
 Number     Number      Type              X           Y           Z
 ---------------------------------------------------------------------
    1          8             0       -2.182916    3.109593    0.560956
    2          1             0       -2.601614    3.322714   -0.280472
    3          6             0       -0.850991    3.051324    0.401729
    4          1             0       -0.423325    3.621231   -0.415223
    5          6             0       -0.047992    2.415942    1.351683
    6          6             0       -0.686942    1.988022    2.669282
    7          1             0       -0.769238    2.834267    3.359990
    8          1             0       -1.687523    1.583324    2.514393
    9          1             0       -0.078571    1.220637    3.154380
   10          6             0        1.406985    2.874733    1.436097
   11          1             0        1.800114    3.149384    0.453611
   12          1             0        1.513805    3.740765    2.098053
   13          1             0        2.040575    2.076505    1.831559
   14          8             0       -0.763364    1.276498   -1.111381
   15          8             0       -0.119572    0.473215   -0.347480
   16          1             0        0.035661    1.301873    0.659655
 ---------------------------------------------------------------------

 SCF Done:  E(UB+HF-LYP) =  -383.454021006     A.U. after   21 cycles

 Alpha  occ. eigenvalues --  -19.18894 -19.17910 -19.17702 -10.26552 -10.18156
 Alpha  occ. eigenvalues --  -10.17437 -10.16820  -1.17491  -1.09528  -0.82548
 Alpha  occ. eigenvalues --   -0.78315  -0.70126  -0.69824  -0.59094  -0.56026
 Alpha  occ. eigenvalues --   -0.51627  -0.47256  -0.46995  -0.45664  -0.42994
 Alpha  occ. eigenvalues --   -0.42432  -0.40411  -0.39561  -0.39319  -0.36738
 Alpha  occ. eigenvalues --   -0.35449  -0.28954  -0.25395  -0.22981
 Alpha virt. eigenvalues --   -0.03480   0.01769   0.04935   0.07012   0.09598
 Alpha virt. eigenvalues --    0.09696   0.10919   0.14039   0.14486   0.15487
 Alpha virt. eigenvalues --    0.18742   0.20028   0.20589   0.25520   0.26646

  Beta  occ. eigenvalues --  -19.17942 -19.17461 -19.15962 -10.26636 -10.18138
  Beta  occ. eigenvalues --  -10.17440 -10.16822  -1.14370  -1.09586  -0.82519
  Beta  occ. eigenvalues --   -0.73967  -0.70129  -0.69874  -0.59035  -0.56037
  Beta  occ. eigenvalues --   -0.50931  -0.47240  -0.43940  -0.42863  -0.42238
  Beta  occ. eigenvalues --   -0.40439  -0.39595  -0.39342  -0.37798  -0.36770
  Beta  occ. eigenvalues --   -0.35447  -0.28120  -0.21747
  Beta virt. eigenvalues --   -0.08064  -0.03366   0.01804   0.04934   0.07044
  Beta virt. eigenvalues --    0.09642   0.09748   0.10931   0.14047   0.14506
  Beta virt. eigenvalues --    0.16037   0.18783   0.20549   0.21593   0.25611

 Mulliken atomic charges:
              1
     1  O   -0.298602
     2  H    0.266049
     3  C    0.175246
     4  H    0.125979
     5  C   -0.356667
     6  C   -0.242037
     7  H    0.112799
     8  H    0.121696
     9  H    0.109977
    10  C   -0.253526
    11  H    0.106863
    12  H    0.114098
    13  H    0.114514
    14  O   -0.207375
    15  O   -0.164323
    16  H    0.275311
 Sum of Mulliken charges=   0.00000

 Dipole moment (field-independent basis, Debye):
    X=    -0.3022    Y=     2.9590    Z=     0.6972  Tot=     3.0550
 Quadrupole moment (field-independent basis, Debye-Ang):
   XX=   -39.9670   YY=   -31.6957   ZZ=   -43.4961
   XY=    -3.3173   XZ=     2.7621   YZ=    -2.6679

  Exact polarizability:  61.939  -5.456  64.205   5.855   4.171  68.205
 Approx polarizability:  89.054 -20.863 114.266   9.648   9.009  99.976

 ******    1 imaginary frequencies (negative Signs) ******

                     1                      2                      3
                     A                      A                      A
 Frequencies --  -915.7729               106.9439               139.5476
 Red. masses --     1.4917                 3.8898                 6.7878
 Frc consts  --     0.7370                 0.0262                 0.0779
 IR Inten    --   270.6403                 2.3715                 3.3719

                     4                      5                      6
                     A                      A                      A
 Frequencies --   175.3238               195.5271               207.9934
 Red. masses --     1.1229                 3.6812                 1.0871
 Frc consts  --     0.0203                 0.0829                 0.0277
 IR Inten    --     0.7068                14.1262                 0.0703

                     7                      8                      9
                     A                      A                      A
 Frequencies --   245.1028               274.1931               347.2562
 Red. masses --     3.8349                 2.9554                 2.4354
 Frc consts  --     0.1357                 0.1309                 0.1730
 IR Inten    --    10.3307                 3.1929                 5.0837

                    10                     11                     12
                     A                      A                      A
 Frequencies --   420.9765               436.4221               563.1649
 Red. masses --     3.3625                 1.2453                 2.4049
 Frc consts  --     0.3511                 0.1397                 0.4494
 IR Inten    --    99.4908                68.2686                19.1567

                    13                     14                     15
                     A                      A                      A
 Frequencies --   577.9775               667.3842               830.2055
 Red. masses --     3.8989                 4.8568                 2.5771
 Frc consts  --     0.7674                 1.2745                 1.0465
 IR Inten    --    46.9550                 2.5248                27.0331

                    16                     17                     18
                     A                      A                      A
 Frequencies --   898.1137               972.9085              1012.1013
 Red. masses --     1.3480                 1.3345                 1.2460
 Frc consts  --     0.6406                 0.7442                 0.7520
 IR Inten    --    16.9245                 2.0302                 3.4581

                    19                     20                     21
                     A                      A                      A
 Frequencies --  1029.2625              1125.9767              1161.5043
 Red. masses --     1.5957                 1.6027                 2.1535
 Frc consts  --     0.9960                 1.1972                 1.7118
 IR Inten    --    25.1382                42.5992                70.4583

                    22                     23                     24
                     A                      A                      A
 Frequencies --  1223.7144              1269.8840              1301.7063
 Red. masses --     2.6182                 1.3060                 2.4340
 Frc consts  --     2.3100                 1.2409                 2.4299
 IR Inten    --   116.3063               106.8892                83.1054

                    25                     26                     27
                     A                      A                      A
 Frequencies --  1326.6813              1371.5538              1408.5049
 Red. masses --     2.4712                 1.4707                 1.2486
 Frc consts  --     2.5626                 1.6301                 1.4594
 IR Inten    --   102.6961                 8.3486                 2.8059

                    28                     29                     30
                     A                      A                      A
 Frequencies --  1423.5309              1485.6223              1495.1074
 Red. masses --     1.2474                 1.0429                 1.0487
 Frc consts  --     1.4893                 1.3562                 1.3812
 IR Inten    --     0.3192                 0.5217                 6.6797

                    31                     32                     33
                     A                      A                      A
 Frequencies --  1499.8955              1508.3032              1583.9935
 Red. masses --     1.0564                 1.0666                 1.0915
 Frc consts  --     1.4002                 1.4296                 1.6136
 IR Inten    --    10.3025                 2.3511                38.6210

                    34                     35                     36
                     A                      A                      A
 Frequencies --  1637.1772              3017.3339              3023.5025
 Red. masses --     2.9067                 1.0375                 1.0411
 Frc consts  --     4.5903                 5.5651                 5.6075
 IR Inten    --    76.1565                30.5297                37.7196

                    37                     38                     39
                     A                      A                      A
 Frequencies --  3075.6152              3080.7322              3092.8286
 Red. masses --     1.0991                 1.0969                 1.1016
 Frc consts  --     6.1258                 6.1339                 6.2088
 IR Inten    --    20.1435                24.9277                27.4137

                    40                     41                     42
                     A                      A                      A
 Frequencies --  3119.7536              3176.8286              3820.9317
 Red. masses --     1.0995                 1.0927                 1.0662
 Frc consts  --     6.3052                 6.4974                 9.1709
 IR Inten    --    14.3935                14.9687                95.4321

 - Thermochemistry -
 -------------------
 Temperature   298.150 Kelvin.  Pressure   1.00000 Atm.
 Atom  1 has atomic number  8 and mass  15.99491

 Molecular mass:   105.05517 amu.
 Principal axes and moments of inertia in atomic units:
                           1         2         3
     EIGENVALUES --   654.18888 864.353921117.75004
           X            0.25118   0.87830   0.40681
           Y            0.45005  -0.47807   0.75426
           Z            0.85695  -0.00637  -0.51536
 This molecule is an asymmetric top.
 Rotational symmetry number  1.
 Warning -- assumption of classical behavior for rotation
           may cause significant error
 Rotational temperatures (Kelvin)      0.13240     0.10021     0.07749
 Rotational constants (GHZ):           2.75875     2.08797     1.61462
    1 imaginary frequencies ignored.
 Zero-point vibrational energy     330953.4 (Joules/Mol)
                                   79.09976 (Kcal/Mol)
 Warning -- explicit consideration of  12 degrees of freedom as
           vibrations may cause significant error
 Vibrational temperatures:    153.87   200.78   252.25   281.32   299.26
          (Kelvin)            352.65   394.50   499.62   605.69   627.91
                              810.27   831.58   960.22  1194.48  1292.18
                             1399.80  1456.19  1480.88  1620.03  1671.14
                             1760.65  1827.08  1872.86  1908.80  1973.36
                             2026.52  2048.14  2137.48  2151.12  2158.01
                             2170.11  2279.01  2355.53  4341.27  4350.14
                             4425.12  4432.48  4449.89  4488.62  4570.74
                             5497.46

 Zero-point correction=                           0.126053 (Hartree/Particle)
 Thermal correction to Energy=                    0.134715
 Thermal correction to Enthalpy=                  0.135659
 Thermal correction to Gibbs Free Energy=         0.092677
 Sum of electronic and zero-point Energies=           -383.327968
 Sum of electronic and thermal Energies=              -383.319306
 Sum of electronic and thermal Enthalpies=            -383.318362
 Sum of electronic and thermal Free Energies=         -383.361344

                     E (Thermal)             CV                S
                      KCal/Mol        Cal/Mol-Kelvin    Cal/Mol-Kelvin
 Total                   84.535             30.409             90.464
 Electronic               0.000              0.000              1.377
 Translational            0.889              2.981             39.865
 Rotational               0.889              2.981             27.938
 Vibrational             82.758             24.447             21.284
 Vibration  1             0.606              1.944              3.324
 Vibration  2             0.615              1.914              2.810
 Vibration  3             0.627              1.873              2.378
 Vibration  4             0.636              1.846              2.175
 Vibration  5             0.641              1.828              2.061
 Vibration  6             0.660              1.771              1.766
 Vibration  7             0.677              1.721              1.570
 Vibration  8             0.725              1.581              1.179
 Vibration  9             0.783              1.425              0.889
 Vibration 10             0.797              1.391              0.838
 Vibration 11             0.919              1.111              0.518
 Vibration 12             0.935              1.079              0.489

 Optimization completed.
    -- Stationary point found.
 Normal termination of Gaussian 03 at Tue Jul  8 23:31:57 2014.
