 Gaussian 03, Revision D.01,
 Gaussian 03:  AM64L-G03RevD.01 13-Oct-2005

 -------------------------------------
 # freq nosymm b3lyp/cbsb7 iop(7/33=1)
 -------------------------------------

 -------------------
 Title Card Required
 -------------------
 Symbolic Z-matrix:
 Charge =  0 Multiplicity = 1

                          Input orientation:
 ---------------------------------------------------------------------
 Center     Atomic     Atomic              Coordinates (Angstroms)
 Number     Number      Type              X           Y           Z
 ---------------------------------------------------------------------
    1          6             0        0.189620   -0.033290    0.049686
    2          1             0        1.280973   -0.045386    0.121374
    3          1             0       -0.136029    1.017746    0.093324
    4          6             0       -0.251234   -0.615018   -1.287141
    5          6             0       -0.484521   -2.059665   -1.391639
    6          1             0       -0.294868   -2.691413   -0.529723
    7          1             0       -0.423363   -2.541953   -2.363786
    8          6             0        0.075788    0.209345   -2.507620
    9          1             0       -0.317930   -0.263712   -3.408460
   10          1             0       -0.364738    1.207273   -2.425337
   11          1             0        1.158379    0.324307   -2.619426
   12          8             0       -0.310945   -0.770014    1.147169
   13          1             0       -1.247331   -0.916450    0.956915
   14          8             0       -1.592891   -1.146491   -1.237918
 ---------------------------------------------------------------------

 SCF Done:  E(RB+HF-LYP) =  -307.729927433     A.U. after   13 cycles

 Alpha  occ. eigenvalues --  -19.13495 -19.11379 -10.23774 -10.22249 -10.22226
 Alpha  occ. eigenvalues --  -10.17708  -1.08062  -1.02057  -0.77347  -0.69314
 Alpha  occ. eigenvalues --   -0.67010  -0.57990  -0.52640  -0.49984  -0.46176
 Alpha  occ. eigenvalues --   -0.45199  -0.42292  -0.41456  -0.39964  -0.37891
 Alpha  occ. eigenvalues --   -0.33765  -0.31277  -0.28830  -0.27161
 Alpha virt. eigenvalues --    0.04105   0.05775   0.06987   0.07170   0.09370
 Alpha virt. eigenvalues --    0.10282   0.11332   0.12479   0.13692   0.15596
 Alpha virt. eigenvalues --    0.18166   0.19988   0.24738   0.26907   0.30148

 Mulliken atomic charges:
              1
     1  C    0.097448
     2  H    0.111265
     3  H    0.095917
     4  C   -0.136438
     5  C   -0.015909
     6  H    0.121941
     7  H    0.112023
     8  C   -0.225663
     9  H    0.114124
    10  H    0.114839
    11  H    0.112893
    12  O   -0.399270
    13  H    0.239897
    14  O   -0.343067
 Sum of Mulliken charges=   0.00000

 Dipole moment (field-independent basis, Debye):
    X=     1.1209    Y=     0.2693    Z=    -1.6493  Tot=     2.0122
 Quadrupole moment (field-independent basis, Debye-Ang):
   XX=   -38.8939   YY=   -34.5241   ZZ=   -37.1789
   XY=    -0.7519   XZ=    -3.2895   YZ=     1.5127

  Exact polarizability:  44.251   3.692  55.238  -0.824  -0.410  51.698
 Approx polarizability:  68.989   3.091  75.247  -0.768  -0.208  65.775

                     1                      2                      3
                     A                      A                      A
 Frequencies --   141.6486               182.5172               254.9331
 Red. masses --     2.3945                 1.1058                 4.1063
 Frc consts  --     0.0283                 0.0217                 0.1572
 IR Inten    --     8.9845                 2.1721                 2.3598

                     4                      5                      6
                     A                      A                      A
 Frequencies --   353.5989               359.5118               400.7613
 Red. masses --     2.5970                 2.4064                 2.3193
 Frc consts  --     0.1913                 0.1833                 0.2195
 IR Inten    --    26.3845                 4.9120                 6.0262

                     7                      8                      9
                     A                      A                      A
 Frequencies --   508.1795               553.8941               700.7465
 Red. masses --     1.2881                 2.7703                 4.9020
 Frc consts  --     0.1960                 0.5008                 1.4182
 IR Inten    --    91.2160                45.0804                18.6300

                    10                     11                     12
                     A                      A                      A
 Frequencies --   813.4054               889.8662               926.0726
 Red. masses --     3.5843                 1.7716                 1.9283
 Frc consts  --     1.3972                 0.8265                 0.9744
 IR Inten    --    29.8348                11.2755                10.3948

                    13                     14                     15
                     A                      A                      A
 Frequencies --   996.0046              1011.8875              1085.1822
 Red. masses --     1.5228                 1.6737                 3.2822
 Frc consts  --     0.8901                 1.0097                 2.2773
 IR Inten    --     4.9161                 8.5493                89.0843

                    16                     17                     18
                     A                      A                      A
 Frequencies --  1120.4843              1131.3986              1166.4831
 Red. masses --     1.8886                 1.3882                 1.3238
 Frc consts  --     1.3970                 1.0470                 1.0613
 IR Inten    --    12.3749                 3.6315                 2.0619

                    19                     20                     21
                     A                      A                      A
 Frequencies --  1232.9158              1257.4332              1359.3492
 Red. masses --     1.2016                 2.2368                 1.6494
 Frc consts  --     1.0761                 2.0837                 1.7957
 IR Inten    --    17.4306                13.1907                11.2123

                    22                     23                     24
                     A                      A                      A
 Frequencies --  1404.1319              1424.4070              1440.3704
 Red. masses --     1.4242                 1.6062                 1.3057
 Frc consts  --     1.6544                 1.9201                 1.5960
 IR Inten    --     3.5162                22.9968                41.7687

                    25                     26                     27
                     A                      A                      A
 Frequencies --  1485.4342              1496.5704              1507.7101
 Red. masses --     1.0553                 1.0600                 1.0836
 Frc consts  --     1.3720                 1.3988                 1.4513
 IR Inten    --     8.5976                 4.8952                 3.1167

                    28                     29                     30
                     A                      A                      A
 Frequencies --  1524.7010              2965.3385              3028.8453
 Red. masses --     1.4520                 1.0715                 1.0368
 Frc consts  --     1.9887                 5.5514                 5.6040
 IR Inten    --     3.1748                66.6142                19.8025

                    31                     32                     33
                     A                      A                      A
 Frequencies --  3066.1673              3086.8590              3092.5654
 Red. masses --     1.0907                 1.1009                 1.0513
 Frc consts  --     6.0416                 6.1808                 5.9239
 IR Inten    --    23.9399                25.2050                25.0265

                    34                     35                     36
                     A                      A                      A
 Frequencies --  3115.1158              3186.0668              3766.1027
 Red. masses --     1.1007                 1.1200                 1.0651
 Frc consts  --     6.2929                 6.6983                 8.9010
 IR Inten    --    19.0040                14.3012                38.2775

 - Thermochemistry -
 -------------------
 Temperature   298.150 Kelvin.  Pressure   1.00000 Atm.
 Atom  1 has atomic number  6 and mass  12.00000

 Molecular mass:    88.05243 amu.
 Principal axes and moments of inertia in atomic units:
                           1         2         3
     EIGENVALUES --   329.96919 555.68806 736.91920
           X            0.03460   0.54830   0.83557
           Y           -0.03886   0.83617  -0.54709
           Z            0.99865   0.01354  -0.05024
 This molecule is an asymmetric top.
 Rotational symmetry number  1.
 Rotational temperatures (Kelvin)      0.26249     0.15587     0.11754
 Rotational constants (GHZ):           5.46942     3.24776     2.44904
 Zero-point vibrational energy     311248.3 (Joules/Mol)
                                   74.39014 (Kcal/Mol)
 Warning -- explicit consideration of   8 degrees of freedom as
           vibrations may cause significant error
 Vibrational temperatures:    203.80   262.60   366.79   508.75   517.26
          (Kelvin)            576.61   731.16   796.93  1008.22  1170.31
                             1280.32  1332.41  1433.03  1455.88  1561.33
                             1612.13  1627.83  1678.31  1773.89  1809.16
                             1955.80  2020.23  2049.40  2072.37  2137.21
                             2153.23  2169.26  2193.70  4266.46  4357.83
                             4411.53  4441.30  4449.51  4481.95  4584.03
                             5418.58

 Zero-point correction=                           0.118548 (Hartree/Particle)
 Thermal correction to Energy=                    0.125061
 Thermal correction to Enthalpy=                  0.126005
 Thermal correction to Gibbs Free Energy=         0.088802
 Sum of electronic and zero-point Energies=           -307.611379
 Sum of electronic and thermal Energies=              -307.604867
 Sum of electronic and thermal Enthalpies=            -307.603922
 Sum of electronic and thermal Free Energies=         -307.641126

                     E (Thermal)             CV                S
                      KCal/Mol        Cal/Mol-Kelvin    Cal/Mol-Kelvin
 Total                   78.477             23.733             78.301
 Electronic               0.000              0.000              0.000
 Translational            0.889              2.981             39.339
 Rotational               0.889              2.981             26.405
 Vibrational             76.699             17.772             12.557
 Vibration  1             0.615              1.912              2.781
 Vibration  2             0.630              1.864              2.303
 Vibration  3             0.665              1.754              1.696
 Vibration  4             0.730              1.568              1.150
 Vibration  5             0.734              1.556              1.124
 Vibration  6             0.767              1.468              0.960
 Vibration  7             0.863              1.232              0.638
 Vibration  8             0.909              1.131              0.536

 Optimization completed.
    -- Stationary point found.
 Normal termination of Gaussian 03 at Mon Jun 10 10:08:32 2013.
