 Gaussian 03, Revision D.01,
 Gaussian 03:  AM64L-G03RevD.01 13-Oct-2005

 ----------------------------------------------------------
 # opt=(ts,noeigentest,addred,calcfc) b3lyp/6-31g(d) nosymm
 ----------------------------------------------------------

 -------------
 83gAlkoxyIsom
 -------------
 Symbolic Z-matrix:
 Charge =  0 Multiplicity = 2

 SCF Done:  E(UB+HF-LYP) =  -383.333272043     A.U. after   29 cycles

  Exact polarizability:  51.354 -10.878  69.979  -7.995   8.211  70.299
 Approx polarizability:  78.908 -20.231 110.561 -12.251  20.857 102.929

 SCF Done:  E(UB+HF-LYP) =  -383.333040517     A.U. after   20 cycles
 SCF Done:  E(UB+HF-LYP) =  -383.332458452     A.U. after   17 cycles
 SCF Done:  E(UB+HF-LYP) =  -383.331555417     A.U. after   20 cycles
 SCF Done:  E(UB+HF-LYP) =  -383.330356086     A.U. after   19 cycles
 SCF Done:  E(UB+HF-LYP) =  -383.328910150     A.U. after   19 cycles
 SCF Done:  E(UB+HF-LYP) =  -383.327294392     A.U. after   19 cycles
 SCF Done:  E(UB+HF-LYP) =  -383.325585999     A.U. after   23 cycles
 SCF Done:  E(UB+HF-LYP) =  -383.323845800     A.U. after   23 cycles
 SCF Done:  E(UB+HF-LYP) =  -383.322129313     A.U. after   23 cycles
 Optimization completed.
    -- Stationary point found.
 Optimization completed.
 SCF Done:  E(UB+HF-LYP) =  -383.319261745     A.U. after   15 cycles
 SCF Done:  E(UB+HF-LYP) =  -383.318474908     A.U. after   21 cycles
 SCF Done:  E(UB+HF-LYP) =  -383.320141496     A.U. after   21 cycles
 SCF Done:  E(UB+HF-LYP) =  -383.320179944     A.U. after   24 cycles
 SCF Done:  E(UB+HF-LYP) =  -383.320179751     A.U. after   15 cycles
 SCF Done:  E(UB+HF-LYP) =  -383.320179700     A.U. after   15 cycles
    -- Stationary point found.
 SCF Done:  E(UB+HF-LYP) =  -383.318759664     A.U. after   22 cycles
 SCF Done:  E(UB+HF-LYP) =  -383.320380873     A.U. after   21 cycles
 SCF Done:  E(UB+HF-LYP) =  -383.320413388     A.U. after   24 cycles
 SCF Done:  E(UB+HF-LYP) =  -383.320414328     A.U. after   15 cycles
 Optimization completed.
    -- Stationary point found.

                          Input orientation:
 ---------------------------------------------------------------------
 Center     Atomic     Atomic              Coordinates (Angstroms)
 Number     Number      Type              X           Y           Z
 ---------------------------------------------------------------------
    1          6             0       -1.087016    0.162299   -0.095901
    2          1             0       -2.160121    0.275912   -0.279952
    3          1             0       -0.832047   -0.903721   -0.117408
    4          6             0       -0.641021    0.745640    1.250628
    5          1             0        0.429967    0.527925    1.327657
    6          6             0       -1.378849    0.037017    2.395144
    7          1             0       -1.201423   -1.044602    2.365462
    8          1             0       -1.035777    0.402213    3.369177
    9          1             0       -2.460137    0.207811    2.332886
   10          6             0       -0.780903    2.323840    1.431807
   11          1             0       -1.465694    2.499081    2.274017
   12          1             0        0.214808    2.710661    1.698347
   13          8             0       -1.288141    3.014661    0.337471
   14          8             0       -0.364591    0.743880   -1.186768
   15          8             0       -1.109845    1.864030   -1.638647
   16          1             0       -0.946087    2.584789   -0.862689
 ---------------------------------------------------------------------

 Alpha  occ. eigenvalues --  -19.21355 -19.20419 -19.19062 -10.25129 -10.24709
 Alpha  occ. eigenvalues --  -10.22372 -10.20073  -1.13103  -1.02988  -0.90210
 Alpha  occ. eigenvalues --   -0.80582  -0.69292  -0.68137  -0.58862  -0.54638
 Alpha  occ. eigenvalues --   -0.51299  -0.47704  -0.46846  -0.45829  -0.43832
 Alpha  occ. eigenvalues --   -0.42098  -0.40639  -0.38719  -0.37912  -0.35489
 Alpha  occ. eigenvalues --   -0.32031  -0.29601  -0.28607  -0.26107
 Alpha virt. eigenvalues --    0.04434   0.07158   0.09647   0.11506   0.12350
 Alpha virt. eigenvalues --    0.13604   0.15022   0.17436   0.17884   0.18578
 Alpha virt. eigenvalues --    0.19933   0.22401   0.23150   0.25260   0.29727

  Beta  occ. eigenvalues --  -19.21216 -19.19672 -19.17370 -10.25174 -10.24712
  Beta  occ. eigenvalues --  -10.22187 -10.20057  -1.12162  -0.99271  -0.89102
  Beta  occ. eigenvalues --   -0.79998  -0.68850  -0.67527  -0.58313  -0.53495
  Beta  occ. eigenvalues --   -0.50217  -0.47307  -0.46345  -0.45165  -0.42375
  Beta  occ. eigenvalues --   -0.41100  -0.39596  -0.37578  -0.36851  -0.34864
  Beta  occ. eigenvalues --   -0.28827  -0.28064  -0.25261
  Beta virt. eigenvalues --   -0.16340   0.05017   0.07303   0.09871   0.11653
  Beta virt. eigenvalues --    0.12456   0.13812   0.15101   0.17472   0.18065
  Beta virt. eigenvalues --    0.19033   0.20079   0.22773   0.23757   0.25682

 Mulliken atomic charges:
              1
     1  C   -0.026870
     2  H    0.167042
     3  H    0.155811
     4  C   -0.122570
     5  H    0.158586
     6  C   -0.469120
     7  H    0.154864
     8  H    0.159152
     9  H    0.162660
    10  C   -0.021799
    11  H    0.153276
    12  H    0.143660
    13  O   -0.449882
    14  O   -0.268721
    15  O   -0.362276
    16  H    0.466187
 Sum of Mulliken charges=   0.00000

 Dipole moment (field-independent basis, Debye):
    X=     0.2195    Y=    -1.6011    Z=     3.4559  Tot=     3.8151
 Quadrupole moment (field-independent basis, Debye-Ang):
   XX=   -43.1088   YY=   -46.0905   ZZ=   -43.1955
   XY=     3.5380   XZ=    -2.2850   YZ=     4.1806

 Normal termination of Gaussian 03 at Fri Jul 19 02:02:28 2019.
