 Gaussian 03, Revision D.01,
 Gaussian 03:  AM64L-G03RevD.01 13-Oct-2005

 -------------------------------------
 # freq nosymm b3lyp/cbsb7 iop(7/33=1)
 -------------------------------------

 -------------------
 Title Card Required
 -------------------
 Symbolic Z-matrix:
 Charge =  0 Multiplicity = 2

                          Input orientation:
 ---------------------------------------------------------------------
 Center     Atomic     Atomic              Coordinates (Angstroms)
 Number     Number      Type              X           Y           Z
 ---------------------------------------------------------------------
    1          6             0       -0.483378    0.071565    0.145659
    2          1             0       -1.428615   -0.373610   -0.186077
    3          1             0        0.219785   -0.725932    0.399843
    4          6             0       -0.686475    1.005458    1.344132
    5          1             0        0.292566    1.425652    1.601390
    6          6             0       -1.224801    0.202880    2.535593
    7          1             0       -0.553164   -0.617990    2.799385
    8          1             0       -1.331711    0.840803    3.417068
    9          1             0       -2.207165   -0.227500    2.315854
   10          6             0       -1.624420    2.191584    1.040877
   11          1             0       -2.636795    1.834638    0.786251
   12          1             0       -1.744341    2.805474    1.949474
   13          8             0       -1.157774    3.073364    0.070336
   14          8             0        0.133785    0.721715   -0.975823
   15          8             0       -0.832441    1.514135   -1.617027
   16          1             0       -0.841933    2.409201   -1.025702
 ---------------------------------------------------------------------

 SCF Done:  E(UB+HF-LYP) =  -383.448729948     A.U. after   26 cycles

 Alpha  occ. eigenvalues --  -19.19947 -19.18686 -19.15801 -10.23538 -10.23530
 Alpha  occ. eigenvalues --  -10.19616 -10.18339  -1.15311  -1.03407  -0.91337
 Alpha  occ. eigenvalues --   -0.81159  -0.69550  -0.68643  -0.59605  -0.56030
 Alpha  occ. eigenvalues --   -0.52338  -0.49046  -0.47635  -0.45546  -0.44246
 Alpha  occ. eigenvalues --   -0.43702  -0.40703  -0.39161  -0.38725  -0.36496
 Alpha  occ. eigenvalues --   -0.32701  -0.30178  -0.29318  -0.28429
 Alpha virt. eigenvalues --    0.02892   0.03479   0.05896   0.06471   0.06884
 Alpha virt. eigenvalues --    0.10342   0.10482   0.12691   0.13675   0.14037
 Alpha virt. eigenvalues --    0.15307   0.19203   0.19815   0.21251   0.22851

  Beta  occ. eigenvalues --  -19.19671 -19.17868 -19.14091 -10.23562 -10.23543
  Beta  occ. eigenvalues --  -10.19594 -10.18335  -1.14197  -0.99815  -0.90060
  Beta  occ. eigenvalues --   -0.80714  -0.69150  -0.67998  -0.59276  -0.54277
  Beta  occ. eigenvalues --   -0.51272  -0.48674  -0.46861  -0.43816  -0.43530
  Beta  occ. eigenvalues --   -0.42127  -0.40403  -0.38462  -0.37552  -0.36128
  Beta  occ. eigenvalues --   -0.29642  -0.28183  -0.27543
  Beta virt. eigenvalues --   -0.17131   0.02963   0.04131   0.05925   0.06541
  Beta virt. eigenvalues --    0.07051   0.10439   0.10563   0.12736   0.13791
  Beta virt. eigenvalues --    0.14439   0.15633   0.19386   0.19904   0.21644

 Mulliken atomic charges:
              1
     1  C    0.034003
     2  H    0.116819
     3  H    0.126427
     4  C   -0.236339
     5  H    0.128430
     6  C   -0.292919
     7  H    0.116303
     8  H    0.115304
     9  H    0.110548
    10  C    0.021071
    11  H    0.110756
    12  H    0.131015
    13  O   -0.343401
    14  O   -0.195722
    15  O   -0.237816
    16  H    0.295520
 Sum of Mulliken charges=   0.00000

 Dipole moment (field-independent basis, Debye):
    X=    -0.8148    Y=    -1.5476    Z=     3.2088  Tot=     3.6545
 Quadrupole moment (field-independent basis, Debye-Ang):
   XX=   -41.8463   YY=   -47.4930   ZZ=   -43.2747
   XY=     0.0548   XZ=    -2.2496   YZ=     3.8496

  Exact polarizability:  55.094 -10.627  74.181  -8.371   8.020  75.289
 Approx polarizability:  84.702 -19.745 115.984 -12.748  20.598 109.605

 ******    1 imaginary frequencies (negative Signs) ******

                     1                      2                      3
                     A                      A                      A
 Frequencies -- -1203.8271               134.0652               194.4336
 Red. masses --     1.1878                 3.5464                 2.3337
 Frc consts  --     1.0142                 0.0376                 0.0520
 IR Inten    --  1342.3008                 0.8332                 2.6259

                     4                      5                      6
                     A                      A                      A
 Frequencies --   213.9312               282.2061               300.8243
 Red. masses --     1.0799                 5.8181                 2.4866
 Frc consts  --     0.0291                 0.2730                 0.1326
 IR Inten    --     0.3132                 8.2521                 1.2425

                     7                      8                      9
                     A                      A                      A
 Frequencies --   358.2073               396.4166               455.6276
 Red. masses --     5.0294                 2.3905                 2.9984
 Frc consts  --     0.3802                 0.2213                 0.3667
 IR Inten    --     8.6307                 2.1414                 8.9415

                    10                     11                     12
                     A                      A                      A
 Frequencies --   528.1965               564.0031               836.2769
 Red. masses --     4.6902                 3.3777                 2.3279
 Frc consts  --     0.7710                 0.6330                 0.9592
 IR Inten    --    38.9519                 0.8637                 6.6898

                    13                     14                     15
                     A                      A                      A
 Frequencies --   857.9859               914.4298               942.3269
 Red. masses --     1.5466                 2.7210                 1.7153
 Frc consts  --     0.6708                 1.3405                 0.8974
 IR Inten    --     1.8002                17.2644                 5.6178

                    16                     17                     18
                     A                      A                      A
 Frequencies --   972.3868              1023.3098              1034.9830
 Red. masses --     2.0541                 5.6416                 3.8982
 Frc consts  --     1.1443                 3.4807                 2.4603
 IR Inten    --    22.9298                 9.6729                28.2869

                    19                     20                     21
                     A                      A                      A
 Frequencies --  1084.4658              1121.6073              1171.4325
 Red. masses --     2.8203                 1.8671                 1.9947
 Frc consts  --     1.9543                 1.3839                 1.6127
 IR Inten    --     2.9016                 5.5452                 2.8817

                    22                     23                     24
                     A                      A                      A
 Frequencies --  1232.8326              1290.9341              1304.4067
 Red. masses --     1.2490                 1.1799                 1.1987
 Frc consts  --     1.1185                 1.1585                 1.2017
 IR Inten    --     2.7044                22.9491                26.5128

                    25                     26                     27
                     A                      A                      A
 Frequencies --  1310.0435              1340.6438              1395.3670
 Red. masses --     1.2719                 1.2269                 1.3571
 Frc consts  --     1.2861                 1.2992                 1.5568
 IR Inten    --     5.3722                38.1838                13.0947

                    28                     29                     30
                     A                      A                      A
 Frequencies --  1399.8259              1416.2529              1427.6777
 Red. masses --     1.3815                 1.2202                 1.0811
 Frc consts  --     1.5949                 1.4420                 1.2983
 IR Inten    --     6.0954                10.8096                23.1396

                    31                     32                     33
                     A                      A                      A
 Frequencies --  1465.6710              1499.4650              1503.0234
 Red. masses --     1.0919                 1.0422                 1.0590
 Frc consts  --     1.3820                 1.3806                 1.4096
 IR Inten    --     7.8671                 9.1802                 7.4760

                    34                     35                     36
                     A                      A                      A
 Frequencies --  1676.3141              2938.9051              2963.7909
 Red. masses --     1.1351                 1.0560                 1.0979
 Frc consts  --     1.8793                 5.3741                 5.6820
 IR Inten    --   413.1906                27.1586                14.1836

                    37                     38                     39
                     A                      A                      A
 Frequencies --  3019.9919              3024.0618              3034.3729
 Red. masses --     1.0561                 1.0472                 1.0770
 Frc consts  --     5.6750                 5.6425                 5.8425
 IR Inten    --    14.1342                19.7201                34.5700

                    40                     41                     42
                     A                      A                      A
 Frequencies --  3084.1880              3091.0762              3094.7162
 Red. masses --     1.1009                 1.1032                 1.1022
 Frc consts  --     6.1700                 6.2102                 6.2192
 IR Inten    --    18.1046                19.8631                35.8114

 - Thermochemistry -
 -------------------
 Temperature   298.150 Kelvin.  Pressure   1.00000 Atm.
 Atom  1 has atomic number  6 and mass  12.00000

 Molecular mass:   105.05517 amu.
 Principal axes and moments of inertia in atomic units:
                           1         2         3
     EIGENVALUES --   490.28789 798.046821181.38950
           X           -0.17025  -0.38886   0.90543
           Y           -0.27114   0.90186   0.33635
           Z            0.94736   0.18824   0.25897
 This molecule is an asymmetric top.
 Rotational symmetry number  1.
 Warning -- assumption of classical behavior for rotation
           may cause significant error
 Rotational temperatures (Kelvin)      0.17666     0.10853     0.07332
 Rotational constants (GHZ):           3.68098     2.26145     1.52764
    1 imaginary frequencies ignored.
 Zero-point vibrational energy     334360.3 (Joules/Mol)
                                   79.91403 (Kcal/Mol)
 Warning -- explicit consideration of  10 degrees of freedom as
           vibrations may cause significant error
 Vibrational temperatures:    192.89   279.75   307.80   406.03   432.82
          (Kelvin)            515.38   570.35   655.55   759.96   811.47
                             1203.21  1234.45  1315.66  1355.80  1399.05
                             1472.31  1489.11  1560.30  1613.74  1685.43
                             1773.77  1857.36  1876.75  1884.86  1928.89
                             2007.62  2014.03  2037.67  2054.11  2108.77
                             2157.39  2162.51  2411.84  4228.42  4264.23
                             4345.09  4350.95  4365.78  4437.45  4447.36
                             4452.60

 Zero-point correction=                           0.127351 (Hartree/Particle)
 Thermal correction to Energy=                    0.134643
 Thermal correction to Enthalpy=                  0.135587
 Thermal correction to Gibbs Free Energy=         0.095598
 Sum of electronic and zero-point Energies=           -383.321379
 Sum of electronic and thermal Energies=              -383.314087
 Sum of electronic and thermal Enthalpies=            -383.313143
 Sum of electronic and thermal Free Energies=         -383.353132

                     E (Thermal)             CV                S
                      KCal/Mol        Cal/Mol-Kelvin    Cal/Mol-Kelvin
 Total                   84.490             27.008             84.163
 Electronic               0.000              0.000              1.377
 Translational            0.889              2.981             39.865
 Rotational               0.889              2.981             27.627
 Vibrational             82.712             21.046             15.294
 Vibration  1             0.613              1.919              2.887
 Vibration  2             0.635              1.848              2.185
 Vibration  3             0.644              1.820              2.010
 Vibration  4             0.681              1.707              1.520
 Vibration  5             0.693              1.672              1.412
 Vibration  6             0.733              1.558              1.130
 Vibration  7             0.763              1.478              0.976
 Vibration  8             0.814              1.348              0.779
 Vibration  9             0.883              1.188              0.591
 Vibration 10             0.920              1.109              0.516

 Optimization completed.
    -- Stationary point found.
 Normal termination of Gaussian 03 at Tue Jun 18 11:10:48 2013.
