 Gaussian 03, Revision D.01,
 Gaussian 03:  AM64L-G03RevD.01 13-Oct-2005

 -------------------------------------
 # freq nosymm b3lyp/cbsb7 iop(7/33=1)
 -------------------------------------

 -------------------
 Title Card Required
 -------------------
 Symbolic Z-matrix:
 Charge =  0 Multiplicity = 2

                          Input orientation:
 ---------------------------------------------------------------------
 Center     Atomic     Atomic              Coordinates (Angstroms)
 Number     Number      Type              X           Y           Z
 ---------------------------------------------------------------------
    1          8             0        0.157196   -0.008561   -0.070794
    2          1             0        1.026313    0.258291    0.290881
    3          8             0       -0.449802    1.295631   -0.256183
    4          6             0        0.264994    1.934302   -1.301083
    5          1             0        0.244803    1.300131   -2.196239
    6          8             0        1.613217    2.138812   -0.958001
    7          1             0        1.466351    3.278235   -0.451968
    8          6             0       -0.356695    3.337033   -1.444220
    9          1             0       -1.421529    3.310895   -1.184103
   10          6             0       -0.177734    3.888876   -2.861716
   11          1             0       -0.740636    3.295098   -3.590189
   12          1             0       -0.534326    4.923048   -2.922018
   13          1             0        0.878559    3.873434   -3.153335
   14          6             0        0.457321    4.124722   -0.405309
   15          1             0        0.108752    4.074206    0.626633
   16          1             0        0.836814    5.106316   -0.693424
 ---------------------------------------------------------------------

 SCF Done:  E(UB+HF-LYP) =  -383.436022971     A.U. after   19 cycles

 Alpha  occ. eigenvalues --  -19.17609 -19.16644 -19.15090 -10.27325 -10.21071
 Alpha  occ. eigenvalues --  -10.20349 -10.17854  -1.12935  -1.03320  -0.90637
 Alpha  occ. eigenvalues --   -0.81554  -0.71663  -0.66585  -0.58301  -0.54858
 Alpha  occ. eigenvalues --   -0.52631  -0.49048  -0.46840  -0.45184  -0.43434
 Alpha  occ. eigenvalues --   -0.41984  -0.40632  -0.37211  -0.36850  -0.34312
 Alpha  occ. eigenvalues --   -0.32828  -0.30098  -0.28489  -0.27209
 Alpha virt. eigenvalues --    0.01619   0.03834   0.06341   0.07314   0.07449
 Alpha virt. eigenvalues --    0.09503   0.09989   0.12188   0.12887   0.13370
 Alpha virt. eigenvalues --    0.16537   0.19012   0.20502   0.21832   0.25135

  Beta  occ. eigenvalues --  -19.17614 -19.16631 -19.13670 -10.27340 -10.20363
  Beta  occ. eigenvalues --  -10.20185 -10.17853  -1.12786  -1.00743  -0.90276
  Beta  occ. eigenvalues --   -0.80766  -0.70209  -0.66064  -0.57418  -0.54559
  Beta  occ. eigenvalues --   -0.50575  -0.48238  -0.46314  -0.44788  -0.42684
  Beta  occ. eigenvalues --   -0.41370  -0.40093  -0.36917  -0.36291  -0.32959
  Beta  occ. eigenvalues --   -0.32152  -0.29410  -0.27684
  Beta virt. eigenvalues --   -0.14597   0.01648   0.04018   0.06572   0.07431
  Beta virt. eigenvalues --    0.07567   0.09759   0.10141   0.12261   0.13007
  Beta virt. eigenvalues --    0.13930   0.17831   0.19402   0.20821   0.22205

 Mulliken atomic charges:
              1
     1  O   -0.257912
     2  H    0.262032
     3  O   -0.243347
     4  C    0.270787
     5  H    0.130572
     6  O   -0.357547
     7  H    0.192828
     8  C   -0.242445
     9  H    0.148986
    10  C   -0.278657
    11  H    0.118891
    12  H    0.115392
    13  H    0.117687
    14  C   -0.260718
    15  H    0.148087
    16  H    0.135364
 Sum of Mulliken charges=   0.00000

 Dipole moment (field-independent basis, Debye):
    X=     0.2570    Y=     2.8163    Z=    -0.6139  Tot=     2.8939
 Quadrupole moment (field-independent basis, Debye-Ang):
   XX=   -45.2827   YY=   -30.0943   ZZ=   -39.9866
   XY=    -1.7129   XZ=     2.7657   YZ=    -3.1072

  Exact polarizability:  51.801  -4.013  76.754   2.379  -2.741  57.615
 Approx polarizability:  81.774  -9.372 106.101  -0.152   1.621  75.429

 ******    1 imaginary frequencies (negative Signs) ******

                     1                      2                      3
                     A                      A                      A
 Frequencies -- -1873.8300               109.0542               164.5335
 Red. masses --     1.0725                 3.7754                 4.8081
 Frc consts  --     2.2188                 0.0265                 0.0767
 IR Inten    --   361.3010                 0.1289                 8.5724

                     4                      5                      6
                     A                      A                      A
 Frequencies --   205.3820               289.4542               322.5979
 Red. masses --     3.7130                 1.0782                 2.5024
 Frc consts  --     0.0923                 0.0532                 0.1534
 IR Inten    --     7.9877                 0.8068                 0.1772

                     7                      8                      9
                     A                      A                      A
 Frequencies --   345.0777               436.0996               475.1758
 Red. masses --     3.9205                 1.5006                 2.0298
 Frc consts  --     0.2751                 0.1681                 0.2700
 IR Inten    --    11.0067                 2.0927                 3.2559

                    10                     11                     12
                     A                      A                      A
 Frequencies --   506.4784               598.8703               631.1157
 Red. masses --     1.1792                 4.7543                 4.6250
 Frc consts  --     0.1782                 1.0046                 1.0854
 IR Inten    --   113.8360                12.8007                 4.8113

                    13                     14                     15
                     A                      A                      A
 Frequencies --   744.0247               852.8505               924.2115
 Red. masses --     4.5263                 2.6094                 7.0998
 Frc consts  --     1.4763                 1.1182                 3.5730
 IR Inten    --     7.1412                 3.7804                25.8950

                    16                     17                     18
                     A                      A                      A
 Frequencies --   941.5227               947.3458               973.4944
 Red. masses --     1.4030                 2.6204                 2.3513
 Frc consts  --     0.7328                 1.3856                 1.3129
 IR Inten    --     5.9198                33.3994                54.7821

                    19                     20                     21
                     A                      A                      A
 Frequencies --  1011.7167              1026.2393              1104.8942
 Red. masses --     1.3691                 4.7350                 1.6086
 Frc consts  --     0.8257                 2.9381                 1.1570
 IR Inten    --     7.0153                26.8461                 1.0859

                    22                     23                     24
                     A                      A                      A
 Frequencies --  1139.1859              1165.2347              1181.5342
 Red. masses --     1.7500                 1.1688                 1.8552
 Frc consts  --     1.3381                 0.9350                 1.5259
 IR Inten    --    17.3041                36.9689                 3.8970

                    25                     26                     27
                     A                      A                      A
 Frequencies --  1282.7211              1298.0767              1346.8876
 Red. masses --     1.3723                 1.6817                 1.2592
 Frc consts  --     1.3303                 1.6696                 1.3458
 IR Inten    --     8.9094                 7.1907                 6.1482

                    28                     29                     30
                     A                      A                      A
 Frequencies --  1369.8084              1416.5057              1435.8371
 Red. masses --     1.3540                 1.2338                 1.1127
 Frc consts  --     1.4968                 1.4586                 1.3515
 IR Inten    --     8.2851                 4.0038                88.3079

                    31                     32                     33
                     A                      A                      A
 Frequencies --  1456.8026              1502.5686              1506.7859
 Red. masses --     1.1366                 1.0450                 1.0512
 Frc consts  --     1.4212                 1.3901                 1.4061
 IR Inten    --     2.7042                 7.2353                 6.1499

                    34                     35                     36
                     A                      A                      A
 Frequencies --  1703.2993              3007.5698              3025.6111
 Red. masses --     1.0433                 1.0351                 1.0838
 Frc consts  --     1.7834                 5.5164                 5.8457
 IR Inten    --    33.3216                16.7391                27.7285

                    37                     38                     39
                     A                      A                      A
 Frequencies --  3028.8473              3069.7317              3074.2371
 Red. masses --     1.0846                 1.0571                 1.0987
 Frc consts  --     5.8622                 5.8690                 6.1180
 IR Inten    --     6.7776                 3.2947                27.9447

                    40                     41                     42
                     A                      A                      A
 Frequencies --  3076.4379              3156.1699              3612.1702
 Red. masses --     1.1020                 1.1132                 1.0679
 Frc consts  --     6.1449                 6.5335                 8.2091
 IR Inten    --    25.5379                 8.9818                25.7566

 - Thermochemistry -
 -------------------
 Temperature   298.150 Kelvin.  Pressure   1.00000 Atm.
 Atom  1 has atomic number  8 and mass  15.99491

 Molecular mass:   105.05517 amu.
 Principal axes and moments of inertia in atomic units:
                           1         2         3
     EIGENVALUES --   372.939421073.828261129.39000
           X           -0.03452   0.69036   0.72264
           Y            0.89307   0.34586  -0.28776
           Z           -0.44859   0.63544  -0.62848
 This molecule is an asymmetric top.
 Rotational symmetry number  1.
 Rotational temperatures (Kelvin)      0.23225     0.08066     0.07669
 Rotational constants (GHZ):           4.83923     1.68066     1.59798
    1 imaginary frequencies ignored.
 Zero-point vibrational energy     331761.3 (Joules/Mol)
                                   79.29286 (Kcal/Mol)
 Warning -- explicit consideration of  10 degrees of freedom as
           vibrations may cause significant error
 Vibrational temperatures:    156.90   236.73   295.50   416.46   464.15
          (Kelvin)            496.49   627.45   683.67   728.71   861.64
                              908.03  1070.48  1227.06  1329.73  1354.64
                             1363.02  1400.64  1455.63  1476.53  1589.69
                             1639.03  1676.51  1699.96  1845.55  1867.64
                             1937.87  1970.85  2038.03  2065.85  2096.01
                             2161.86  2167.93  2450.66  4327.22  4353.17
                             4357.83  4416.65  4423.14  4426.30  4541.02
                             5197.10

 Zero-point correction=                           0.126361 (Hartree/Particle)
 Thermal correction to Energy=                    0.133883
 Thermal correction to Enthalpy=                  0.134827
 Thermal correction to Gibbs Free Energy=         0.094356
 Sum of electronic and zero-point Energies=           -383.309662
 Sum of electronic and thermal Energies=              -383.302140
 Sum of electronic and thermal Enthalpies=            -383.301196
 Sum of electronic and thermal Free Energies=         -383.341666

                     E (Thermal)             CV                S
                      KCal/Mol        Cal/Mol-Kelvin    Cal/Mol-Kelvin
 Total                   84.013             28.237             85.178
 Electronic               0.000              0.000              1.377
 Translational            0.889              2.981             39.865
 Rotational               0.889              2.981             27.605
 Vibrational             82.235             22.275             16.330
 Vibration  1             0.606              1.942              3.286
 Vibration  2             0.623              1.886              2.497
 Vibration  3             0.640              1.832              2.084
 Vibration  4             0.686              1.693              1.477
 Vibration  5             0.708              1.630              1.297
 Vibration  6             0.723              1.585              1.189
 Vibration  7             0.797              1.392              0.839
 Vibration  8             0.832              1.305              0.723
 Vibration  9             0.862              1.236              0.642
 Vibration 10             0.957              1.034              0.452

 Normal termination of Gaussian 03 at Tue Jul  8 23:48:25 2014.
