 Gaussian 03, Revision D.01,
 Gaussian 03:  AM64L-G03RevD.01 13-Oct-2005

 -------------------------------------
 # freq nosymm b3lyp/cbsb7 iop(7/33=1)
 -------------------------------------

 -------
 NBO NRT
 -------
 Symbolic Z-matrix:
 Charge =  0 Multiplicity = 1

                          Input orientation:
 ---------------------------------------------------------------------
 Center     Atomic     Atomic              Coordinates (Angstroms)
 Number     Number      Type              X           Y           Z
 ---------------------------------------------------------------------
    1          6             0        0.915680   -0.163580    0.045890
    2          6             0        2.409070   -0.207550   -0.092700
    3          6             0        3.184250    0.833330   -0.380970
    4          1             0        0.603430   -0.487340    1.045060
    5          1             0        0.433890   -0.841250   -0.667680
    6          1             0        0.526750    0.843250   -0.123420
    7          1             0        2.873160   -1.180680    0.059640
    8          1             0        2.769420    1.824260   -0.541650
    9          1             0        4.260540    0.734950   -0.466850
 ---------------------------------------------------------------------

 SCF Done:  E(RB+HF-LYP) =  -117.944051933     A.U. after   12 cycles

 Alpha  occ. eigenvalues --  -10.17343 -10.16662 -10.15774  -0.78779  -0.68722
 Alpha  occ. eigenvalues --   -0.55532  -0.46892  -0.42399  -0.41486  -0.37483
 Alpha  occ. eigenvalues --   -0.34774  -0.25987
 Alpha virt. eigenvalues --    0.01450   0.05329   0.07747   0.08679   0.11742
 Alpha virt. eigenvalues --    0.12700   0.14004   0.23337   0.29515   0.30988
 Alpha virt. eigenvalues --    0.32302   0.33616   0.38066   0.42396   0.43779

 Mulliken atomic charges:
              1
     1  C   -0.277229
     2  C   -0.154146
     3  C   -0.205478
     4  H    0.115720
     5  H    0.115652
     6  H    0.106733
     7  H    0.097992
     8  H    0.096585
     9  H    0.104171
 Sum of Mulliken charges=   0.00000

 Dipole moment (field-independent basis, Debye):
    X=    -0.3066    Y=    -0.2126    Z=     0.0744  Tot=     0.3805
 Quadrupole moment (field-independent basis, Debye-Ang):
   XX=   -20.6830   YY=   -19.1741   ZZ=   -21.7054
   XY=    -0.5475   XZ=    -0.0301   YZ=    -0.5055

  Exact polarizability:  41.397   6.938  38.528  -3.220  -3.827  24.194
 Approx polarizability:  53.003  12.132  56.742  -4.578  -6.301  33.413

                     1                      2                      3
                     A                      A                      A
 Frequencies --   201.7503               426.6406               590.6129
 Red. masses --     1.1598                 1.9526                 1.1961
 Frc consts  --     0.0278                 0.2094                 0.2458
 IR Inten    --     0.4665                 1.0135                13.0141

                     4                      5                      6
                     A                      A                      A
 Frequencies --   923.9583               940.5385               948.5072
 Red. masses --     2.4743                 1.3264                 1.1501
 Frc consts  --     1.2445                 0.6913                 0.6096
 IR Inten    --     2.7543                45.4909                 3.9526

                     7                      8                      9
                     A                      A                      A
 Frequencies --  1029.0162              1070.6797              1189.1907
 Red. masses --     1.0516                 1.5482                 1.8084
 Frc consts  --     0.6561                 1.0457                 1.5068
 IR Inten    --    12.3764                 1.7189                 0.4354

                    10                     11                     12
                     A                      A                      A
 Frequencies --  1326.9327              1408.7618              1448.7069
 Red. masses --     1.2401                 1.2119                 1.2048
 Frc consts  --     1.2865                 1.4170                 1.4898
 IR Inten    --     0.0965                 2.1456                 0.7943

                    13                     14                     15
                     A                      A                      A
 Frequencies --  1480.7367              1494.9565              1712.8110
 Red. masses --     1.0444                 1.0572                 4.4853
 Frc consts  --     1.3492                 1.3921                 7.7529
 IR Inten    --     8.1090                14.8552                13.3208

                    16                     17                     18
                     A                      A                      A
 Frequencies --  3012.8822              3056.5546              3091.8442
 Red. masses --     1.0367                 1.0992                 1.0983
 Frc consts  --     5.5445                 6.0506                 6.1859
 IR Inten    --    26.0504                25.4849                10.9599

                    19                     20                     21
                     A                      A                      A
 Frequencies --  3119.9067              3127.1511              3207.4857
 Red. masses --     1.0703                 1.0811                 1.1149
 Frc consts  --     6.1380                 6.2291                 6.7580
 IR Inten    --    34.8468                 5.3161                22.4067

 - Thermochemistry -
 -------------------
 Temperature   298.150 Kelvin.  Pressure   1.00000 Atm.
 Atom  1 has atomic number  6 and mass  12.00000

 Molecular mass:    42.04695 amu.
 Principal axes and moments of inertia in atomic units:
                           1         2         3
     EIGENVALUES --    38.40335 194.44612 221.73762
           X            0.91045  -0.40224   0.09633
           Y            0.37844   0.90411   0.19843
           Z           -0.16691  -0.14421   0.97537
 This molecule is an asymmetric top.
 Rotational symmetry number  1.
 Rotational temperatures (Kelvin)      2.25537     0.44544     0.39061
 Rotational constants (GHZ):          46.99437     9.28145     8.13908
 Zero-point vibrational energy     208207.8 (Joules/Mol)
                                   49.76286 (Kcal/Mol)
 Warning -- explicit consideration of   3 degrees of freedom as
           vibrations may cause significant error
 Vibrational temperatures:    290.27   613.84   849.76  1329.37  1353.22
          (Kelvin)           1364.69  1480.52  1540.47  1710.98  1909.16
                             2026.89  2084.36  2130.45  2150.91  2464.35
                             4334.86  4397.69  4448.47  4488.84  4499.27
                             4614.85

 Zero-point correction=                           0.079302 (Hartree/Particle)
 Thermal correction to Energy=                    0.083397
 Thermal correction to Enthalpy=                  0.084341
 Thermal correction to Gibbs Free Energy=         0.054283
 Sum of electronic and zero-point Energies=           -117.864750
 Sum of electronic and thermal Energies=              -117.860655
 Sum of electronic and thermal Enthalpies=            -117.859711
 Sum of electronic and thermal Free Energies=         -117.889769

                     E (Thermal)             CV                S
                      KCal/Mol        Cal/Mol-Kelvin    Cal/Mol-Kelvin
 Total                   52.332             13.000             63.263
 Electronic               0.000              0.000              0.000
 Translational            0.889              2.981             37.136
 Rotational               0.889              2.981             22.031
 Vibrational             50.555              7.038              4.096
 Vibration  1             0.639              1.837              2.117
 Vibration  2             0.788              1.412              0.870
 Vibration  3             0.948              1.052              0.466

 Normal termination of Gaussian 03 at Sun Mar 10 16:29:22 2019.
