 Gaussian 03, Revision D.01,
 Gaussian 03:  AM64L-G03RevD.01 13-Oct-2005

 -------------------------------------
 # freq nosymm b3lyp/cbsb7 iop(7/33=1)
 -------------------------------------

 -------------------
 Title Card Required
 -------------------
 Symbolic Z-matrix:
 Charge =  0 Multiplicity = 1

                          Input orientation:
 ---------------------------------------------------------------------
 Center     Atomic     Atomic              Coordinates (Angstroms)
 Number     Number      Type              X           Y           Z
 ---------------------------------------------------------------------
    1          6             0       -0.425171   -0.942873   -0.000464
    2          1             0        0.039618   -0.501613   -0.896118
    3          6             0        0.042342   -0.187084    1.242182
    4          1             0        1.129150   -0.243584    1.342269
    5          1             0       -0.248500    0.863816    1.196345
    6          1             0       -0.407604   -0.610121    2.143905
    7          6             0       -0.045799   -2.435589    0.020042
    8          1             0       -0.470260   -2.932589    0.897242
    9          1             0       -0.406030   -2.956495   -0.871863
   10          1             0        1.039378   -2.553202    0.059388
   11          6             0       -1.918733   -0.803318   -0.230340
   12          1             0       -2.297658   -1.355800   -1.121574
   13          8             0       -2.673372   -0.167520    0.459607
 ---------------------------------------------------------------------

 SCF Done:  E(RB+HF-LYP) =  -232.527238829     A.U. after   13 cycles

 Alpha  occ. eigenvalues --  -19.12051 -10.25918 -10.19311 -10.17778 -10.16422
 Alpha  occ. eigenvalues --   -1.05522  -0.81366  -0.69965  -0.65355  -0.55369
 Alpha  occ. eigenvalues --   -0.49737  -0.46072  -0.45482  -0.41355  -0.39894
 Alpha  occ. eigenvalues --   -0.38668  -0.37890  -0.35649  -0.34833  -0.25787
 Alpha virt. eigenvalues --   -0.02987   0.03888   0.06901   0.07511   0.09257
 Alpha virt. eigenvalues --    0.10095   0.11074   0.13900   0.14357   0.18406
 Alpha virt. eigenvalues --    0.20215   0.24879   0.25299   0.27484   0.28547

 Mulliken atomic charges:
              1
     1  C   -0.258635
     2  H    0.131303
     3  C   -0.257536
     4  H    0.104414
     5  H    0.118878
     6  H    0.112194
     7  C   -0.289014
     8  H    0.117337
     9  H    0.110658
    10  H    0.119546
    11  C    0.197401
    12  H    0.069791
    13  O   -0.276336
 Sum of Mulliken charges=   0.00000

 Dipole moment (field-independent basis, Debye):
    X=     2.0402    Y=    -1.2441    Z=    -1.1255  Tot=     2.6414
 Quadrupole moment (field-independent basis, Debye-Ang):
   XX=   -39.5729   YY=   -30.1311   ZZ=   -31.7052
   XY=     1.6648   XZ=     2.8730   YZ=     0.1259

  Exact polarizability:  50.207  -3.326  47.777   0.969   5.897  46.875
 Approx polarizability:  69.798  -6.415  64.509  -4.887   7.769  66.791

                     1                      2                      3
                     A                      A                      A
 Frequencies --    93.1454               195.6912               230.3573
 Red. masses --     2.6817                 1.0637                 1.1263
 Frc consts  --     0.0137                 0.0240                 0.0352
 IR Inten    --     4.6655                 0.1163                 1.0789

                     4                      5                      6
                     A                      A                      A
 Frequencies --   272.4154               343.2485               404.5397
 Red. masses --     2.9610                 2.2005                 2.0657
 Frc consts  --     0.1295                 0.1528                 0.1992
 IR Inten    --     7.1833                 0.4514                 1.0127

                     7                      8                      9
                     A                      A                      A
 Frequencies --   639.2446               792.7890               914.6761
 Red. masses --     3.3736                 3.2239                 1.4359
 Frc consts  --     0.8122                 1.1938                 0.7078
 IR Inten    --     3.8075                13.6936                14.1679

                    10                     11                     12
                     A                      A                      A
 Frequencies --   925.3195               943.5380               973.0432
 Red. masses --     1.5902                 1.2551                 1.4810
 Frc consts  --     0.8022                 0.6583                 0.8262
 IR Inten    --     7.7989                 7.9428                 0.9949

                    13                     14                     15
                     A                      A                      A
 Frequencies --  1129.2305              1154.1371              1199.9059
 Red. masses --     1.8732                 2.0650                 1.7364
 Frc consts  --     1.4074                 1.6206                 1.4729
 IR Inten    --     5.3759                 2.8993                 0.4877

                    16                     17                     18
                     A                      A                      A
 Frequencies --  1304.9075              1351.6007              1404.0753
 Red. masses --     1.3757                 1.6922                 1.2370
 Frc consts  --     1.3801                 1.8214                 1.4369
 IR Inten    --     0.6959                 2.7281                 6.5968

                    19                     20                     21
                     A                      A                      A
 Frequencies --  1407.5393              1431.2646              1486.6064
 Red. masses --     1.1866                 1.2336                 1.0411
 Frc consts  --     1.3851                 1.4889                 1.3557
 IR Inten    --     1.1703                 7.9958                 0.6385

                    22                     23                     24
                     A                      A                      A
 Frequencies --  1491.8108              1506.0241              1510.3516
 Red. masses --     1.0483                 1.0434                 1.0606
 Frc consts  --     1.3745                 1.3944                 1.4255
 IR Inten    --     3.8664                 9.2129                13.3462

                    25                     26                     27
                     A                      A                      A
 Frequencies --  1814.5179              2843.6514              2976.0198
 Red. masses --    10.5863                 1.0821                 1.0812
 Frc consts  --    20.5361                 5.1554                 5.6420
 IR Inten    --   171.9447               142.5416                20.2629

                    28                     29                     30
                     A                      A                      A
 Frequencies --  3025.5659              3037.6143              3088.0684
 Red. masses --     1.0349                 1.0357                 1.1022
 Frc consts  --     5.5818                 5.6305                 6.1929
 IR Inten    --    26.1155                16.8027                29.7239

                    31                     32                     33
                     A                      A                      A
 Frequencies --  3097.8614              3101.7669              3111.5842
 Red. masses --     1.1022                 1.1018                 1.1014
 Frc consts  --     6.2321                 6.2457                 6.2826
 IR Inten    --     3.9032                47.4079                21.6576

 - Thermochemistry -
 -------------------
 Temperature   298.150 Kelvin.  Pressure   1.00000 Atm.
 Atom  1 has atomic number  6 and mass  12.00000

 Molecular mass:    72.05751 amu.
 Principal axes and moments of inertia in atomic units:
                           1         2         3
     EIGENVALUES --   241.24776 442.78483 610.98114
           X            0.87151   0.38781  -0.30012
           Y           -0.49027   0.70176  -0.51688
           Z            0.01016   0.59760   0.80173
 This molecule is an asymmetric top.
 Rotational symmetry number  1.
 Rotational temperatures (Kelvin)      0.35902     0.19561     0.14176
 Rotational constants (GHZ):           7.48086     4.07589     2.95384
 Zero-point vibrational energy     294294.0 (Joules/Mol)
                                   70.33795 (Kcal/Mol)
 Warning -- explicit consideration of   6 degrees of freedom as
           vibrations may cause significant error
 Vibrational temperatures:    134.02   281.56   331.43   391.94   493.86
          (Kelvin)            582.04   919.73  1140.65  1316.01  1331.33
                             1357.54  1399.99  1624.71  1660.54  1726.39
                             1877.47  1944.65  2020.15  2025.13  2059.27
                             2138.89  2146.38  2166.83  2173.06  2610.68
                             4091.38  4281.82  4353.11  4370.44  4443.04
                             4457.13  4462.75  4476.87

 Zero-point correction=                           0.112091 (Hartree/Particle)
 Thermal correction to Energy=                    0.118411
 Thermal correction to Enthalpy=                  0.119355
 Thermal correction to Gibbs Free Energy=         0.082691
 Sum of electronic and zero-point Energies=           -232.415148
 Sum of electronic and thermal Energies=              -232.408828
 Sum of electronic and thermal Enthalpies=            -232.407884
 Sum of electronic and thermal Free Energies=         -232.444548

                     E (Thermal)             CV                S
                      KCal/Mol        Cal/Mol-Kelvin    Cal/Mol-Kelvin
 Total                   74.304             21.337             77.166
 Electronic               0.000              0.000              0.000
 Translational            0.889              2.981             38.741
 Rotational               0.889              2.981             25.682
 Vibrational             72.527             15.376             12.743
 Vibration  1             0.602              1.954              3.593
 Vibration  2             0.636              1.846              2.173
 Vibration  3             0.652              1.795              1.876
 Vibration  4             0.675              1.724              1.581
 Vibration  5             0.722              1.589              1.197
 Vibration  6             0.770              1.460              0.946

 Optimization completed.
    -- Stationary point found.
 Normal termination of Gaussian 03 at Tue Jul 15 17:50:28 2014.
