 Gaussian 03, Revision D.01,
 Gaussian 03:  AM64L-G03RevD.01 13-Oct-2005

 -------------------------------------
 # freq nosymm b3lyp/cbsb7 iop(7/33=1)
 -------------------------------------

 -------------------
 Title Card Required
 -------------------
 Symbolic Z-matrix:
 Charge =  0 Multiplicity = 1

                          Input orientation:
 ---------------------------------------------------------------------
 Center     Atomic     Atomic              Coordinates (Angstroms)
 Number     Number      Type              X           Y           Z
 ---------------------------------------------------------------------
    1          8             0       -0.901646    3.732726    0.284391
    2          1             0       -0.741113    2.859007    0.701665
    3          8             0        0.257381    3.846469   -0.564540
    4          6             0        1.053788    2.771432   -0.456942
    5          1             0        1.914061    2.914286   -1.122217
    6          8             0        0.832206    1.830575    0.256291
 ---------------------------------------------------------------------

 SCF Done:  E(RB+HF-LYP) =  -264.963271815     A.U. after   14 cycles

 Alpha  occ. eigenvalues --  -19.24486 -19.20166 -19.15251 -10.33263  -1.19658
 Alpha  occ. eigenvalues --   -1.08404  -0.96294  -0.66917  -0.58618  -0.51892
 Alpha  occ. eigenvalues --   -0.50155  -0.44411  -0.42281  -0.39729  -0.33289
 Alpha  occ. eigenvalues --   -0.30364
 Alpha virt. eigenvalues --   -0.02992  -0.02414   0.05310   0.08390   0.19558
 Alpha virt. eigenvalues --    0.22649   0.34066   0.36179   0.41116   0.46687
 Alpha virt. eigenvalues --    0.57570   0.59300   0.70068   0.71381   0.73091

 Mulliken atomic charges:
              1
     1  O   -0.214788
     2  H    0.264888
     3  O   -0.137408
     4  C    0.301802
     5  H    0.126614
     6  O   -0.341109
 Sum of Mulliken charges=   0.00000

 Dipole moment (field-independent basis, Debye):
    X=     1.1661    Y=    -0.2274    Z=    -0.6465  Tot=     1.3526
 Quadrupole moment (field-independent basis, Debye-Ang):
   XX=   -19.9590   YY=   -27.8781   ZZ=   -20.7416
   XY=     6.1213   XZ=    -2.8875   YZ=    -1.0940

  Exact polarizability:  25.047  -3.994  22.347  -6.638  -3.726  18.354
 Approx polarizability:  35.100  -5.940  38.367  -9.813  -9.856  27.777

                     1                      2                      3
                     A                      A                      A
 Frequencies --   344.6553               347.7383               477.7340
 Red. masses --     6.8176                 2.0081                 1.3521
 Frc consts  --     0.4771                 0.1431                 0.1818
 IR Inten    --    26.8044                16.3577               127.6064

                     4                      5                      6
                     A                      A                      A
 Frequencies --   845.6706               888.6708              1001.2098
 Red. masses --     7.8901                 8.8291                 1.5931
 Frc consts  --     3.3246                 4.1082                 0.9409
 IR Inten    --     9.9683                22.0975                 0.0006

                     7                      8                      9
                     A                      A                      A
 Frequencies --  1142.4372              1360.3818              1492.1589
 Red. masses --     7.4323                 1.1854                 1.1621
 Frc consts  --     5.7153                 1.2925                 1.5245
 IR Inten    --   133.5537                15.3050                92.5544

                    10                     11                     12
                     A                      A                      A
 Frequencies --  1796.8101              3072.7796              3539.1056
 Red. masses --     8.3080                 1.0944                 1.0666
 Frc consts  --    15.8034                 6.0881                 7.8710
 IR Inten    --   257.4297                18.6811                59.6173

 - Thermochemistry -
 -------------------
 Temperature   298.150 Kelvin.  Pressure   1.00000 Atm.
 Atom  1 has atomic number  8 and mass  15.99491

 Molecular mass:    62.00039 amu.
 Principal axes and moments of inertia in atomic units:
                           1         2         3
     EIGENVALUES --    88.02826 239.03003 327.05828
           X           -0.68192  -0.53347   0.50039
           Y            0.73112  -0.51706   0.44511
           Z            0.02128   0.66937   0.74263
 This molecule is an asymmetric top.
 Rotational symmetry number  1.
 Rotational temperatures (Kelvin)      0.98393     0.36236     0.26483
 Rotational constants (GHZ):          20.50184     7.55027     5.51810
 Zero-point vibrational energy      97551.6 (Joules/Mol)
                                   23.31539 (Kcal/Mol)
 Warning -- explicit consideration of   3 degrees of freedom as
           vibrations may cause significant error
 Vibrational temperatures:    495.88   500.32   687.35  1216.73  1278.60
          (Kelvin)           1440.52  1643.71  1957.28  2146.88  2585.21
                             4421.04  5091.98

 Zero-point correction=                           0.037155 (Hartree/Particle)
 Thermal correction to Energy=                    0.041156
 Thermal correction to Enthalpy=                  0.042100
 Thermal correction to Gibbs Free Energy=         0.011062
 Sum of electronic and zero-point Energies=           -264.926116
 Sum of electronic and thermal Energies=              -264.922116
 Sum of electronic and thermal Enthalpies=            -264.921172
 Sum of electronic and thermal Free Energies=         -264.952210

                     E (Thermal)             CV                S
                      KCal/Mol        Cal/Mol-Kelvin    Cal/Mol-Kelvin
 Total                   25.826             12.367             65.324
 Electronic               0.000              0.000              0.000
 Translational            0.889              2.981             38.293
 Rotational               0.889              2.981             23.447
 Vibrational             24.048              6.405              3.585
 Vibration  1             0.723              1.586              1.191
 Vibration  2             0.725              1.580              1.176
 Vibration  3             0.834              1.299              0.716

 Optimization completed.
    -- Stationary point found.
 Normal termination of Gaussian 03 at Mon Jun 30 12:45:47 2014.
