 Gaussian 03, Revision D.01,
 Gaussian 03:  AM64L-G03RevD.01 13-Oct-2005

 -------------------------------------
 # freq nosymm b3lyp/cbsb7 iop(7/33=1)
 -------------------------------------

 -------------------
 Title Card Required
 -------------------
 Symbolic Z-matrix:
 Charge =  0 Multiplicity = 2

                          Input orientation:
 ---------------------------------------------------------------------
 Center     Atomic     Atomic              Coordinates (Angstroms)
 Number     Number      Type              X           Y           Z
 ---------------------------------------------------------------------
    1          6             0       -4.033069    0.961365    0.294052
    2          1             0       -3.788147    0.553859    1.538842
    3          1             0       -3.673776    1.966689    0.082874
    4          8             0       -5.378670    0.887715    0.046119
    5          1             0       -5.664196   -0.018942    0.230217
    6          6             0       -3.167512   -0.236682   -0.188789
    7          6             0       -1.683976    0.119649   -0.116192
    8          1             0       -1.085154   -0.766428   -0.336712
    9          1             0       -1.433703    0.897425   -0.842407
   10          1             0       -1.424310    0.469017    0.883129
   11          6             0       -3.570605   -0.808692   -1.541954
   12          1             0       -3.367039   -0.084719   -2.334064
   13          1             0       -2.997408   -1.715710   -1.746631
   14          1             0       -4.632008   -1.058706   -1.571044
   15          8             0       -3.519474   -1.237119    0.797891
   16          8             0       -3.417316   -0.550996    2.043299
 ---------------------------------------------------------------------

 SCF Done:  E(UB+HF-LYP) =  -383.445064809     A.U. after   22 cycles

 Alpha  occ. eigenvalues --  -19.17975 -19.17079 -19.16523 -10.25377 -10.25192
 Alpha  occ. eigenvalues --  -10.18148 -10.17332  -1.12878  -1.08018  -0.88603
 Alpha  occ. eigenvalues --   -0.79232  -0.71660  -0.70369  -0.60865  -0.52888
 Alpha  occ. eigenvalues --   -0.52525  -0.49243  -0.46554  -0.45886  -0.43301
 Alpha  occ. eigenvalues --   -0.41088  -0.40681  -0.39346  -0.38626  -0.36674
 Alpha  occ. eigenvalues --   -0.34535  -0.33703  -0.25494  -0.23484
 Alpha virt. eigenvalues --    0.02693   0.03509   0.04543   0.07346   0.09231
 Alpha virt. eigenvalues --    0.09602   0.10625   0.12156   0.13796   0.15983
 Alpha virt. eigenvalues --    0.17226   0.18274   0.18896   0.20819   0.22311

  Beta  occ. eigenvalues --  -19.17853 -19.16640 -19.15277 -10.25345 -10.24463
  Beta  occ. eigenvalues --  -10.18137 -10.17328  -1.11766  -1.07041  -0.86931
  Beta  occ. eigenvalues --   -0.78372  -0.71341  -0.69339  -0.60305  -0.52213
  Beta  occ. eigenvalues --   -0.50758  -0.48619  -0.46128  -0.44890  -0.42238
  Beta  occ. eigenvalues --   -0.40566  -0.40461  -0.38316  -0.38150  -0.36003
  Beta  occ. eigenvalues --   -0.32763  -0.31769  -0.24056
  Beta virt. eigenvalues --   -0.12362   0.02878   0.04091   0.04807   0.07486
  Beta virt. eigenvalues --    0.09358   0.09783   0.10721   0.12634   0.13873
  Beta virt. eigenvalues --    0.16724   0.17601   0.19042   0.19676   0.21247

 Mulliken atomic charges:
              1
     1  C    0.013283
     2  H    0.214510
     3  H    0.130609
     4  O   -0.310464
     5  H    0.260068
     6  C   -0.107823
     7  C   -0.213037
     8  H    0.120083
     9  H    0.105831
    10  H    0.124586
    11  C   -0.217466
    12  H    0.116776
    13  H    0.127824
    14  H    0.100295
    15  O   -0.229830
    16  O   -0.235246
 Sum of Mulliken charges=   0.00000

 Dipole moment (field-independent basis, Debye):
    X=     0.3639    Y=     1.0579    Z=    -2.5098  Tot=     2.7479
 Quadrupole moment (field-independent basis, Debye-Ang):
   XX=   -44.4748   YY=   -44.5947   ZZ=   -47.0569
   XY=    -0.7378   XZ=     7.6216   YZ=     3.4623

  Exact polarizability:  61.524  -4.508  59.677   2.988  -2.052  63.781
 Approx polarizability:  83.555  -8.371  94.903   8.846  -9.621  99.639

 ******    1 imaginary frequencies (negative Signs) ******

                     1                      2                      3
                     A                      A                      A
 Frequencies -- -1917.6200               130.2580               171.4778
 Red. masses --     1.1033                 3.0631                 1.1111
 Frc consts  --     2.3904                 0.0306                 0.0192
 IR Inten    --   460.7667                 5.2534                 0.6989

                     4                      5                      6
                     A                      A                      A
 Frequencies --   217.4758               245.1849               257.8981
 Red. masses --     1.1897                 2.7406                 4.3857
 Frc consts  --     0.0332                 0.0971                 0.1719
 IR Inten    --     0.0684                 0.5204                 3.7810

                     7                      8                      9
                     A                      A                      A
 Frequencies --   346.9785               361.4398               383.2327
 Red. masses --     3.3609                 2.5410                 2.6176
 Frc consts  --     0.2384                 0.1956                 0.2265
 IR Inten    --     3.5786                 5.9176                 0.7407

                    10                     11                     12
                     A                      A                      A
 Frequencies --   506.7042               579.7490               633.6846
 Red. masses --     1.7089                 2.6137                 5.0959
 Frc consts  --     0.2585                 0.5176                 1.2056
 IR Inten    --    38.2310                23.1459                 4.6925

                    13                     14                     15
                     A                      A                      A
 Frequencies --   648.8135               799.8229               838.2024
 Red. masses --     2.1261                 3.5226                 4.1247
 Frc consts  --     0.5273                 1.3277                 1.7074
 IR Inten    --    75.2286                 7.0410                10.9963

                    16                     17                     18
                     A                      A                      A
 Frequencies --   916.1247               922.6943               946.9531
 Red. masses --     1.9214                 4.6866                 1.6473
 Frc consts  --     0.9501                 2.3509                 0.8703
 IR Inten    --     7.3402                 9.7781                 3.8250

                    19                     20                     21
                     A                      A                      A
 Frequencies --   992.1058              1018.4875              1160.7910
 Red. masses --     1.3839                 1.4169                 1.6957
 Frc consts  --     0.8026                 0.8660                 1.3462
 IR Inten    --    11.5170                 1.0701                22.8606

                    22                     23                     24
                     A                      A                      A
 Frequencies --  1172.5367              1204.5676              1222.8822
 Red. masses --     3.0284                 1.5245                 1.8488
 Frc consts  --     2.4531                 1.3033                 1.6289
 IR Inten    --   186.4739                 7.9777                 2.5290

                    25                     26                     27
                     A                      A                      A
 Frequencies --  1257.6826              1328.6416              1400.9087
 Red. masses --     2.5311                 1.6474                 1.2932
 Frc consts  --     2.3589                 1.7134                 1.4953
 IR Inten    --    26.9563                23.3328                20.9816

                    28                     29                     30
                     A                      A                      A
 Frequencies --  1416.8059              1439.1371              1475.3696
 Red. masses --     1.2421                 1.2680                 1.0481
 Frc consts  --     1.4690                 1.5473                 1.3442
 IR Inten    --     9.2245                48.1827                 2.8699

                    31                     32                     33
                     A                      A                      A
 Frequencies --  1486.0581              1496.2895              1510.1595
 Red. masses --     1.0493                 1.0646                 1.0503
 Frc consts  --     1.3653                 1.4043                 1.4113
 IR Inten    --     1.9000                 9.2034                12.9156

                    34                     35                     36
                     A                      A                      A
 Frequencies --  1727.4555              3040.3475              3044.9194
 Red. masses --     1.0401                 1.0357                 1.0354
 Frc consts  --     1.8286                 5.6409                 5.6561
 IR Inten    --    24.6685                10.4391                12.1184

                    37                     38                     39
                     A                      A                      A
 Frequencies --  3105.7125              3112.9707              3118.6029
 Red. masses --     1.1019                 1.1020                 1.1019
 Frc consts  --     6.2622                 6.2917                 6.3144
 IR Inten    --     3.0993                20.2608                18.7421

                    40                     41                     42
                     A                      A                      A
 Frequencies --  3130.7502              3135.5253              3752.1812
 Red. masses --     1.1012                 1.0880                 1.0652
 Frc consts  --     6.3594                 6.3022                 8.8360
 IR Inten    --     8.9060                18.7544                42.3488

 - Thermochemistry -
 -------------------
 Temperature   298.150 Kelvin.  Pressure   1.00000 Atm.
 Atom  1 has atomic number  6 and mass  12.00000

 Molecular mass:   105.05517 amu.
 Principal axes and moments of inertia in atomic units:
                           1         2         3
     EIGENVALUES --   615.82717 680.93342 905.18005
           X            0.90517  -0.05265   0.42178
           Y           -0.42485  -0.08110   0.90162
           Z            0.01326   0.99531   0.09577
 This molecule is an asymmetric top.
 Rotational symmetry number  1.
 Warning -- assumption of classical behavior for rotation
           may cause significant error
 Rotational temperatures (Kelvin)      0.14065     0.12720     0.09569
 Rotational constants (GHZ):           2.93060     2.65039     1.99379
    1 imaginary frequencies ignored.
 Zero-point vibrational energy     332906.3 (Joules/Mol)
                                   79.56651 (Kcal/Mol)
 Warning -- explicit consideration of  10 degrees of freedom as
           vibrations may cause significant error
 Vibrational temperatures:    187.41   246.72   312.90   352.77   371.06
          (Kelvin)            499.22   520.03   551.39   729.03   834.13
                              911.73   933.50  1150.77  1205.98  1318.10
                             1327.55  1362.45  1427.42  1465.37  1670.12
                             1687.02  1733.10  1759.45  1809.52  1911.62
                             2015.59  2038.47  2070.59  2122.73  2138.10
                             2152.82  2172.78  2485.42  4374.38  4380.95
                             4468.42  4478.87  4486.97  4504.45  4511.32
                             5398.55

 Zero-point correction=                           0.126797 (Hartree/Particle)
 Thermal correction to Energy=                    0.134626
 Thermal correction to Enthalpy=                  0.135570
 Thermal correction to Gibbs Free Energy=         0.094732
 Sum of electronic and zero-point Energies=           -383.318268
 Sum of electronic and thermal Energies=              -383.310439
 Sum of electronic and thermal Enthalpies=            -383.309495
 Sum of electronic and thermal Free Energies=         -383.350333

                     E (Thermal)             CV                S
                      KCal/Mol        Cal/Mol-Kelvin    Cal/Mol-Kelvin
 Total                   84.479             29.102             85.950
 Electronic               0.000              0.000              1.377
 Translational            0.889              2.981             39.865
 Rotational               0.889              2.981             27.431
 Vibrational             82.701             23.140             17.277
 Vibration  1             0.612              1.923              2.942
 Vibration  2             0.626              1.878              2.419
 Vibration  3             0.646              1.814              1.980
 Vibration  4             0.660              1.771              1.765
 Vibration  5             0.667              1.749              1.676
 Vibration  6             0.725              1.581              1.180
 Vibration  7             0.736              1.552              1.116
 Vibration  8             0.752              1.506              1.026
 Vibration  9             0.862              1.235              0.642
 Vibration 10             0.936              1.075              0.486

 Optimization completed.
    -- Stationary point found.
 Normal termination of Gaussian 03 at Sun Jun  9 18:16:41 2013.
