 Gaussian 03, Revision D.01,
 Gaussian 03:  AM64L-G03RevD.01 13-Oct-2005

 -------------------------------------
 # freq nosymm b3lyp/cbsb7 iop(7/33=1)
 -------------------------------------

 -------------------
 Title Card Required
 -------------------
 Symbolic Z-matrix:
 Charge =  0 Multiplicity = 2

                          Input orientation:
 ---------------------------------------------------------------------
 Center     Atomic     Atomic              Coordinates (Angstroms)
 Number     Number      Type              X           Y           Z
 ---------------------------------------------------------------------
    1          8             0       -0.469881   -0.380827   -0.459313
    2          6             0       -0.427338    1.015570   -0.102951
    3          6             0       -1.476963    1.164411    1.011901
    4          1             0       -1.245308    0.472678    1.822977
    5          1             0       -1.475817    2.181613    1.413131
    6          1             0       -2.471810    0.925550    0.633240
    7          6             0       -0.820747    1.813642   -1.307687
    8          1             0       -1.626877    2.540230   -1.312758
    9          6             0        0.979291    1.391580    0.407756
   10          1             0        1.014690    2.431091    0.745746
   11          1             0        1.241832    0.741335    1.245938
   12          1             0        1.725678    1.267360   -0.377438
   13          8             0       -0.102109    1.748914   -2.400549
   14          8             0        0.603218   -0.613681   -1.814523
   15          1             0        1.375828   -0.923960   -1.323837
   16          1             0        0.406487    0.873110   -2.351712
 ---------------------------------------------------------------------

 SCF Done:  E(UB+HF-LYP) =  -383.451006960     A.U. after   28 cycles

 Alpha  occ. eigenvalues --  -19.17150 -19.14813 -19.14211 -10.25976 -10.24667
 Alpha  occ. eigenvalues --  -10.17811 -10.17349  -1.09666  -1.02829  -0.94205
 Alpha  occ. eigenvalues --   -0.78869  -0.70976  -0.69008  -0.60565  -0.52610
 Alpha  occ. eigenvalues --   -0.50370  -0.47463  -0.46307  -0.44248  -0.42481
 Alpha  occ. eigenvalues --   -0.41449  -0.40013  -0.39024  -0.38132  -0.37352
 Alpha  occ. eigenvalues --   -0.34527  -0.29876  -0.27566  -0.16439
 Alpha virt. eigenvalues --   -0.11882   0.03390   0.05452   0.07951   0.08501
 Alpha virt. eigenvalues --    0.09455   0.10122   0.12898   0.13446   0.14218
 Alpha virt. eigenvalues --    0.17434   0.19268   0.21873   0.23280   0.24201

  Beta  occ. eigenvalues --  -19.16838 -19.13868 -19.13751 -10.25166 -10.24729
  Beta  occ. eigenvalues --  -10.17769 -10.17292  -1.08888  -1.01252  -0.93076
  Beta  occ. eigenvalues --   -0.78100  -0.70805  -0.67731  -0.60210  -0.51829
  Beta  occ. eigenvalues --   -0.49766  -0.46704  -0.45702  -0.43865  -0.41666
  Beta  occ. eigenvalues --   -0.40735  -0.39482  -0.37925  -0.37164  -0.37035
  Beta  occ. eigenvalues --   -0.32944  -0.29360  -0.26612
  Beta virt. eigenvalues --   -0.07045  -0.06048   0.03469   0.05704   0.08169
  Beta virt. eigenvalues --    0.08706   0.09587   0.10207   0.12966   0.13733
  Beta virt. eigenvalues --    0.14320   0.17679   0.19552   0.22432   0.23381

 Mulliken atomic charges:
              1
     1  O   -0.263015
     2  C   -0.072045
     3  C   -0.262004
     4  H    0.125897
     5  H    0.112283
     6  H    0.121217
     7  C    0.164080
     8  H    0.128358
     9  C   -0.242823
    10  H    0.105494
    11  H    0.117124
    12  H    0.095051
    13  O   -0.275229
    14  O   -0.413801
    15  H    0.265881
    16  H    0.293533
 Sum of Mulliken charges=   0.00000

 Dipole moment (field-independent basis, Debye):
    X=     0.7955    Y=     1.9299    Z=     1.9374  Tot=     2.8479
 Quadrupole moment (field-independent basis, Debye-Ang):
   XX=   -38.9803   YY=   -42.0295   ZZ=   -47.9037
   XY=    -4.1946   XZ=    -1.6753   YZ=     0.5968

  Exact polarizability:  68.536 -26.293 106.665  -3.359  -9.979  70.303
 Approx polarizability: 105.529 -62.800 239.405  -9.151 -22.527 104.252

 ******    1 imaginary frequencies (negative Signs) ******

                     1                      2                      3
                     A                      A                      A
 Frequencies -- -1170.3839                91.6072               161.4848
 Red. masses --     5.1659                 5.1008                 2.4984
 Frc consts  --     4.1692                 0.0252                 0.0384
 IR Inten    --  4125.3505                 6.0204                 3.7479

                     4                      5                      6
                     A                      A                      A
 Frequencies --   181.5151               232.3112               242.0264
 Red. masses --     1.0315                 1.0849                 3.3704
 Frc consts  --     0.0200                 0.0345                 0.1163
 IR Inten    --     0.0058                 0.1823                 3.9068

                     7                      8                      9
                     A                      A                      A
 Frequencies --   311.4868               343.1116               365.5135
 Red. masses --     2.1442                 4.4290                 2.0509
 Frc consts  --     0.1226                 0.3072                 0.1614
 IR Inten    --    13.6415                 7.2959                 3.0997

                    10                     11                     12
                     A                      A                      A
 Frequencies --   410.0344               430.3832               440.6062
 Red. masses --     2.4968                 1.5402                 3.1063
 Frc consts  --     0.2473                 0.1681                 0.3553
 IR Inten    --    15.3902                97.3780                11.8763

                    13                     14                     15
                     A                      A                      A
 Frequencies --   577.2275               621.8342               777.1294
 Red. masses --     3.3937                 2.9403                 4.5052
 Frc consts  --     0.6662                 0.6699                 1.6031
 IR Inten    --     3.6967                 6.1838                 1.3666

                    16                     17                     18
                     A                      A                      A
 Frequencies --   849.4045               894.1276               927.7398
 Red. masses --     2.5647                 1.1196                 1.4563
 Frc consts  --     1.0902                 0.5274                 0.7385
 IR Inten    --     9.0463                49.5144                 1.6678

                    19                     20                     21
                     A                      A                      A
 Frequencies --   933.3700              1009.4261              1064.5628
 Red. masses --     2.1320                 1.3003                 1.0971
 Frc consts  --     1.0943                 0.7806                 0.7326
 IR Inten    --    14.4058                 3.8947               137.3179

                    22                     23                     24
                     A                      A                      A
 Frequencies --  1116.7997              1189.4654              1229.3999
 Red. masses --     2.0192                 3.0835                 2.3044
 Frc consts  --     1.4838                 2.5704                 2.0520
 IR Inten    --    94.4534                16.4735                36.1665

                    25                     26                     27
                     A                      A                      A
 Frequencies --  1276.6953              1343.8199              1384.4890
 Red. masses --     2.2417                 1.8066                 1.2286
 Frc consts  --     2.1528                 1.9222                 1.3875
 IR Inten    --   192.6827               114.9660                16.2966

                    28                     29                     30
                     A                      A                      A
 Frequencies --  1406.9937              1474.5705              1485.4147
 Red. masses --     1.2237                 1.0481                 1.0519
 Frc consts  --     1.4273                 1.3428                 1.3675
 IR Inten    --     4.3316                 4.3733                 1.5751

                    31                     32                     33
                     A                      A                      A
 Frequencies --  1491.9641              1507.7279              1543.6793
 Red. masses --     1.0564                 1.0539                 1.4149
 Frc consts  --     1.3855                 1.4115                 1.9865
 IR Inten    --     1.2240                10.4089               149.8399

                    34                     35                     36
                     A                      A                      A
 Frequencies --  2664.4363              3031.2243              3037.2959
 Red. masses --     1.1063                 1.0352                 1.0361
 Frc consts  --     4.6273                 5.6041                 5.6316
 IR Inten    --   596.8206                13.4989                16.0297

                    37                     38                     39
                     A                      A                      A
 Frequencies --  3097.2045              3109.2156              3117.6318
 Red. masses --     1.1024                 1.1002                 1.1014
 Frc consts  --     6.2308                 6.2662                 6.3072
 IR Inten    --     4.3056                10.3955                16.4727

                    40                     41                     42
                     A                      A                      A
 Frequencies --  3124.1352              3175.8805              3804.6275
 Red. masses --     1.1033                 1.0909                 1.0680
 Frc consts  --     6.3445                 6.4827                 9.1081
 IR Inten    --    11.9879                 6.3171               119.8829

 - Thermochemistry -
 -------------------
 Temperature   298.150 Kelvin.  Pressure   1.00000 Atm.
 Atom  1 has atomic number  8 and mass  15.99491

 Molecular mass:   105.05517 amu.
 Principal axes and moments of inertia in atomic units:
                           1         2         3
     EIGENVALUES --   561.10524 778.70142 941.98309
           X           -0.36091  -0.28561   0.88779
           Y            0.24393   0.88990   0.38545
           Z            0.90014  -0.35567   0.25151
 This molecule is an asymmetric top.
 Rotational symmetry number  1.
 Warning -- assumption of classical behavior for rotation
           may cause significant error
 Rotational temperatures (Kelvin)      0.15436     0.11123     0.09195
 Rotational constants (GHZ):           3.21640     2.31763     1.91590
    1 imaginary frequencies ignored.
 Zero-point vibrational energy     331829.6 (Joules/Mol)
                                   79.30917 (Kcal/Mol)
 Warning -- explicit consideration of  12 degrees of freedom as
           vibrations may cause significant error
 Vibrational temperatures:    131.80   232.34   261.16   334.24   348.22
          (Kelvin)            448.16   493.66   525.89   589.95   619.22
                              633.93   830.50   894.68  1118.11  1222.10
                             1286.45  1334.81  1342.91  1452.34  1531.67
                             1606.82  1711.37  1768.83  1836.88  1933.45
                             1991.97  2024.35  2121.58  2137.18  2146.60
                             2169.28  2221.01  3833.52  4361.25  4369.99
                             4456.18  4473.46  4485.57  4494.93  4569.38
                             5474.00

 Zero-point correction=                           0.126387 (Hartree/Particle)
 Thermal correction to Energy=                    0.134971
 Thermal correction to Enthalpy=                  0.135915
 Thermal correction to Gibbs Free Energy=         0.093498
 Sum of electronic and zero-point Energies=           -383.324620
 Sum of electronic and thermal Energies=              -383.316036
 Sum of electronic and thermal Enthalpies=            -383.315092
 Sum of electronic and thermal Free Energies=         -383.357509

                     E (Thermal)             CV                S
                      KCal/Mol        Cal/Mol-Kelvin    Cal/Mol-Kelvin
 Total                   84.695             31.235             89.273
 Electronic               0.000              0.000              1.377
 Translational            0.889              2.981             39.865
 Rotational               0.889              2.981             27.512
 Vibrational             82.918             25.274             20.519
 Vibration  1             0.602              1.955              3.625
 Vibration  2             0.622              1.890              2.532
 Vibration  3             0.630              1.865              2.313
 Vibration  4             0.653              1.792              1.861
 Vibration  5             0.658              1.776              1.788
 Vibration  6             0.700              1.652              1.354
 Vibration  7             0.722              1.589              1.198
 Vibration  8             0.739              1.543              1.099
 Vibration  9             0.774              1.448              0.926
 Vibration 10             0.792              1.404              0.857
 Vibration 11             0.801              1.382              0.825
 Vibration 12             0.934              1.081              0.491

 Optimization completed.
    -- Stationary point found.
 Normal termination of Gaussian 03 at Wed Jul 23 22:27:37 2014.
