 Gaussian 03, Revision D.01,
 Gaussian 03:  AM64L-G03RevD.01 13-Oct-2005

 -------------------------------------
 # freq nosymm b3lyp/cbsb7 iop(7/33=1)
 -------------------------------------

 -------------------
 Title Card Required
 -------------------
 Symbolic Z-matrix:
 Charge =  0 Multiplicity = 1

                          Input orientation:
 ---------------------------------------------------------------------
 Center     Atomic     Atomic              Coordinates (Angstroms)
 Number     Number      Type              X           Y           Z
 ---------------------------------------------------------------------
    1          8             0        0.075109   -0.036436    0.760822
    2          6             0       -0.218512    0.132736   -0.390332
    3          1             0        0.096186    1.034602   -0.955398
    4          1             0       -0.823047   -0.602162   -0.961424
 ---------------------------------------------------------------------

 SCF Done:  E(RB+HF-LYP) =  -114.536341160     A.U. after   11 cycles

 Alpha  occ. eigenvalues --  -19.13742 -10.27086  -1.06857  -0.63828  -0.50015
 Alpha  occ. eigenvalues --   -0.45639  -0.40686  -0.27281
 Alpha virt. eigenvalues --   -0.04932   0.04843   0.10519   0.18608   0.31175
 Alpha virt. eigenvalues --    0.38361   0.39574   0.53426   0.59556   0.63352
 Alpha virt. eigenvalues --    0.74315   0.82955   0.91614   1.00588   1.25420

 Mulliken atomic charges:
              1
     1  O   -0.251166
     2  C    0.100082
     3  H    0.075541
     4  H    0.075544
 Sum of Mulliken charges=   0.00000

 Dipole moment (field-independent basis, Debye):
    X=    -0.5481    Y=     0.3158    Z=    -2.1489  Tot=     2.2401
 Quadrupole moment (field-independent basis, Debye-Ang):
   XX=   -11.4808   YY=   -11.5429   ZZ=   -12.5219
   XY=    -0.0602   XZ=     0.0043   YZ=    -0.0174

  Exact polarizability:  10.163   2.389  13.099   2.652  -1.504  18.287
 Approx polarizability:  13.208   2.095  15.805   4.972  -2.840  29.810

                     1                      2                      3
                     A                      A                      A
 Frequencies --  1201.9681              1269.9408              1538.9214
 Red. masses --     1.3706                 1.3461                 1.1067
 Frc consts  --     1.1666                 1.2791                 1.5443
 IR Inten    --     2.5794                14.6728                 7.9548

                     4                      5                      6
                     A                      A                      A
 Frequencies --  1826.7240              2870.3038              2919.7071
 Red. masses --     7.4328                 1.0428                 1.1205
 Frc consts  --    14.6133                 5.0619                 5.6277
 IR Inten    --   110.4302                64.6358               169.4820

 - Thermochemistry -
 -------------------
 Temperature   298.150 Kelvin.  Pressure   1.00000 Atm.
 Atom  1 has atomic number  8 and mass  15.99491

 Molecular mass:    30.01056 amu.
 Principal axes and moments of inertia in atomic units:
                           1         2         3
     EIGENVALUES --     6.34149  46.22005  52.56154
           X            0.24469   0.48968   0.83686
           Y           -0.14098   0.87190  -0.46896
           Z            0.95930   0.00323  -0.28238
 This molecule is an asymmetric top.
 Rotational symmetry number  1.
 Rotational temperatures (Kelvin)     13.65827     1.87394     1.64786
 Rotational constants (GHZ):         284.59249    39.04672    34.33577
 Zero-point vibrational energy      69548.3 (Joules/Mol)
                                   16.62244 (Kcal/Mol)
 Vibrational temperatures:   1729.36  1827.16  2214.16  2628.25  4129.72
          (Kelvin)           4200.80

 Zero-point correction=                           0.026490 (Hartree/Particle)
 Thermal correction to Energy=                    0.029357
 Thermal correction to Enthalpy=                  0.030301
 Thermal correction to Gibbs Free Energy=         0.004834
 Sum of electronic and zero-point Energies=           -114.509852
 Sum of electronic and thermal Energies=              -114.506984
 Sum of electronic and thermal Enthalpies=            -114.506040
 Sum of electronic and thermal Free Energies=         -114.531507

                     E (Thermal)             CV                S
                      KCal/Mol        Cal/Mol-Kelvin    Cal/Mol-Kelvin
 Total                   18.422              6.418             53.599
 Electronic               0.000              0.000              0.000
 Translational            0.889              2.981             36.130
 Rotational               0.889              2.981             17.384
 Vibrational             16.644              0.456              0.085

 Optimization completed.
    -- Stationary point found.
 Normal termination of Gaussian 03 at Tue Aug 26 18:56:03 2014.
