 Gaussian 03, Revision D.01,
 Gaussian 03:  AM64L-G03RevD.01 13-Oct-2005

 -------------------------------------
 # freq nosymm b3lyp/cbsb7 iop(7/33=1)
 -------------------------------------

 -------------------
 Title Card Required
 -------------------
 Symbolic Z-matrix:
 Charge =  0 Multiplicity = 2

                          Input orientation:
 ---------------------------------------------------------------------
 Center     Atomic     Atomic              Coordinates (Angstroms)
 Number     Number      Type              X           Y           Z
 ---------------------------------------------------------------------
    1          6             0       -1.990087    0.954287    0.277089
    2          6             0       -1.713586    1.608663    1.585550
    3          1             0       -2.456086    2.264560    2.018562
    4          1             0       -0.731998    1.534106    2.035872
    5          6             0       -1.227774   -0.356980    0.103657
    6          1             0       -1.562056   -1.091868    0.840076
    7          1             0       -1.390695   -0.768645   -0.893522
    8          1             0       -0.156792   -0.192568    0.247104
    9          8             0       -1.500699    1.965763   -0.678979
   10          8             0       -1.681613    1.473391   -2.051140
   11          1             0       -0.758148    1.355680   -2.310151
   12          6             0       -3.501053    0.789394    0.039276
   13          1             0       -3.922583    0.129868    0.801624
   14          1             0       -3.652581    0.326652   -0.943278
   15          8             0       -4.184213    2.025327    0.138694
   16          1             0       -3.723110    2.633671   -0.452054
 ---------------------------------------------------------------------

 SCF Done:  E(UB+HF-LYP) =  -383.459338563     A.U. after   17 cycles

 Alpha  occ. eigenvalues --  -19.18025 -19.17419 -19.10930 -10.24099 -10.21401
 Alpha  occ. eigenvalues --  -10.19165 -10.17321  -1.11685  -1.01983  -0.92398
 Alpha  occ. eigenvalues --   -0.78931  -0.70133  -0.68403  -0.57575  -0.53709
 Alpha  occ. eigenvalues --   -0.49349  -0.48192  -0.48011  -0.45376  -0.42385
 Alpha  occ. eigenvalues --   -0.41217  -0.39360  -0.38866  -0.36824  -0.33695
 Alpha  occ. eigenvalues --   -0.31182  -0.28762  -0.26921  -0.23558
 Alpha virt. eigenvalues --    0.00532   0.03668   0.06543   0.07381   0.07736
 Alpha virt. eigenvalues --    0.09744   0.10614   0.10764   0.12474   0.15298
 Alpha virt. eigenvalues --    0.17209   0.19014   0.20840   0.23176   0.24425

  Beta  occ. eigenvalues --  -19.17889 -19.17294 -19.10917 -10.24178 -10.21382
  Beta  occ. eigenvalues --  -10.17777 -10.17296  -1.11359  -1.01947  -0.91975
  Beta  occ. eigenvalues --   -0.78254  -0.68960  -0.67127  -0.56866  -0.53504
  Beta  occ. eigenvalues --   -0.48854  -0.48025  -0.47648  -0.45044  -0.42276
  Beta  occ. eigenvalues --   -0.41016  -0.38964  -0.38582  -0.36261  -0.33632
  Beta  occ. eigenvalues --   -0.31044  -0.28341  -0.26705
  Beta virt. eigenvalues --   -0.09003   0.01564   0.03921   0.06700   0.07768
  Beta virt. eigenvalues --    0.07941   0.09872   0.10674   0.11095   0.12572
  Beta virt. eigenvalues --    0.15400   0.17525   0.19226   0.21130   0.23304

 Mulliken atomic charges:
              1
     1  C   -0.053682
     2  C   -0.146359
     3  H    0.133785
     4  H    0.117248
     5  C   -0.267756
     6  H    0.115355
     7  H    0.116812
     8  H    0.111608
     9  O   -0.269781
    10  O   -0.267735
    11  H    0.270785
    12  C    0.069070
    13  H    0.106417
    14  H    0.115054
    15  O   -0.395175
    16  H    0.244355
 Sum of Mulliken charges=   0.00000

 Dipole moment (field-independent basis, Debye):
    X=     2.3352    Y=    -1.5905    Z=    -0.1349  Tot=     2.8286
 Quadrupole moment (field-independent basis, Debye-Ang):
   XX=   -54.7387   YY=   -46.3327   ZZ=   -40.8875
   XY=     6.7682   XZ=    -1.2367   YZ=     0.0310

  Exact polarizability:  56.232  -2.744  53.589  -1.005   1.861  66.504
 Approx polarizability:  75.001  -1.067  74.124  -1.038   2.952  96.029

                     1                      2                      3
                     A                      A                      A
 Frequencies --   101.9598               172.9156               198.6315
 Red. masses --     4.4805                 3.0704                 1.0583
 Frc consts  --     0.0274                 0.0541                 0.0246
 IR Inten    --     0.9565                 9.5707                 1.0156

                     4                      5                      6
                     A                      A                      A
 Frequencies --   209.3074               222.3568               270.5879
 Red. masses --     1.9318                 1.3812                 1.0823
 Frc consts  --     0.0499                 0.0402                 0.0467
 IR Inten    --     2.2535                17.1558               109.7676

                     7                      8                      9
                     A                      A                      A
 Frequencies --   284.4998               338.4417               356.7611
 Red. masses --     4.1236                 2.2765                 2.3730
 Frc consts  --     0.1966                 0.1536                 0.1780
 IR Inten    --    11.0414                16.7878                 3.5772

                    10                     11                     12
                     A                      A                      A
 Frequencies --   382.9729               453.1793               519.1244
 Red. masses --     2.5441                 1.3144                 2.8837
 Frc consts  --     0.2198                 0.1590                 0.4579
 IR Inten    --     6.2753                98.4529                 4.0082

                    13                     14                     15
                     A                      A                      A
 Frequencies --   564.3183               610.6695               752.1855
 Red. masses --     3.4930                 1.6305                 5.2039
 Frc consts  --     0.6554                 0.3582                 1.7347
 IR Inten    --    15.8720                32.2557                21.0935

                    16                     17                     18
                     A                      A                      A
 Frequencies --   836.4630               853.5825               890.6798
 Red. masses --     5.2241                 5.0804                 1.7258
 Frc consts  --     2.1535                 2.1809                 0.8066
 IR Inten    --     5.6970                34.3503                 5.1954

                    19                     20                     21
                     A                      A                      A
 Frequencies --   965.9941              1004.1903              1081.2382
 Red. masses --     1.3859                 1.5076                 4.4260
 Frc consts  --     0.7620                 0.8957                 3.0486
 IR Inten    --     0.9003                 4.9321               107.7402

                    22                     23                     24
                     A                      A                      A
 Frequencies --  1095.2516              1214.6281              1236.0359
 Red. masses --     2.0089                 1.5067                 1.9698
 Frc consts  --     1.4198                 1.3097                 1.7731
 IR Inten    --    19.1233                26.4563                 3.1617

                    25                     26                     27
                     A                      A                      A
 Frequencies --  1292.3614              1333.8266              1380.9597
 Red. masses --     2.3012                 1.1838                 1.2627
 Frc consts  --     2.2645                 1.2409                 1.4188
 IR Inten    --    16.5368                42.4666                 3.3289

                    28                     29                     30
                     A                      A                      A
 Frequencies --  1397.9974              1429.2476              1447.9076
 Red. masses --     1.2990                 1.2435                 1.2241
 Frc consts  --     1.4958                 1.4966                 1.5120
 IR Inten    --    10.8545                51.6841                14.4950

                    31                     32                     33
                     A                      A                      A
 Frequencies --  1487.9905              1502.3780              1505.9040
 Red. masses --     1.0744                 1.0707                 1.0566
 Frc consts  --     1.4016                 1.4239                 1.4118
 IR Inten    --     2.7541                 1.8660                 6.8036

                    34                     35                     36
                     A                      A                      A
 Frequencies --  3015.9876              3037.2171              3083.7754
 Red. masses --     1.0646                 1.0356                 1.0989
 Frc consts  --     5.7055                 5.6287                 6.1572
 IR Inten    --    34.3785                15.7796                19.1461

                    37                     38                     39
                     A                      A                      A
 Frequencies --  3102.7505              3116.8400              3148.0857
 Red. masses --     1.1019                 1.1015                 1.0495
 Frc consts  --     6.2501                 6.3048                 6.1284
 IR Inten    --    23.1695                15.2842                 8.5449

                    40                     41                     42
                     A                      A                      A
 Frequencies --  3265.6338              3783.5421              3791.9364
 Red. masses --     1.1201                 1.0688                 1.0654
 Frc consts  --     7.0377                 9.0146                 9.0255
 IR Inten    --     3.1816                47.5599                37.4155

 - Thermochemistry -
 -------------------
 Temperature   298.150 Kelvin.  Pressure   1.00000 Atm.
 Atom  1 has atomic number  6 and mass  12.00000

 Molecular mass:   105.05517 amu.
 Principal axes and moments of inertia in atomic units:
                           1         2         3
     EIGENVALUES --   611.39813 723.93337 944.23148
           X            0.82509   0.37305   0.42435
           Y           -0.26336  -0.41054   0.87298
           Z           -0.49987   0.83204   0.24048
 This molecule is an asymmetric top.
 Rotational symmetry number  1.
 Warning -- assumption of classical behavior for rotation
           may cause significant error
 Rotational temperatures (Kelvin)      0.14167     0.11964     0.09173
 Rotational constants (GHZ):           2.95183     2.49297     1.91133
 Zero-point vibrational energy     339382.5 (Joules/Mol)
                                   81.11435 (Kcal/Mol)
 Warning -- explicit consideration of  14 degrees of freedom as
           vibrations may cause significant error
 Vibrational temperatures:    146.70   248.79   285.79   301.15   319.92
          (Kelvin)            389.32   409.33   486.94   513.30   551.01
                              652.02   746.90   811.93   878.62  1082.23
                             1203.48  1228.11  1281.49  1389.85  1444.80
                             1555.66  1575.82  1747.58  1778.38  1859.42
                             1919.08  1986.89  2011.40  2056.37  2083.21
                             2140.88  2161.58  2166.66  4339.33  4369.87
                             4436.86  4464.16  4484.43  4529.39  4698.51
                             5443.67  5455.74

 Zero-point correction=                           0.129264 (Hartree/Particle)
 Thermal correction to Energy=                    0.138334
 Thermal correction to Enthalpy=                  0.139278
 Thermal correction to Gibbs Free Energy=         0.096110
 Sum of electronic and zero-point Energies=           -383.330075
 Sum of electronic and thermal Energies=              -383.321005
 Sum of electronic and thermal Enthalpies=            -383.320061
 Sum of electronic and thermal Free Energies=         -383.363229

                     E (Thermal)             CV                S
                      KCal/Mol        Cal/Mol-Kelvin    Cal/Mol-Kelvin
 Total                   86.806             33.104             90.854
 Electronic               0.000              0.000              1.377
 Translational            0.889              2.981             39.865
 Rotational               0.889              2.981             27.527
 Vibrational             85.028             27.142             22.085
 Vibration  1             0.604              1.948              3.417
 Vibration  2             0.626              1.876              2.404
 Vibration  3             0.637              1.842              2.146
 Vibration  4             0.642              1.827              2.050
 Vibration  5             0.648              1.807              1.940
 Vibration  6             0.674              1.727              1.592
 Vibration  7             0.683              1.702              1.506
 Vibration  8             0.719              1.599              1.219
 Vibration  9             0.732              1.561              1.136
 Vibration 10             0.752              1.507              1.027
 Vibration 11             0.812              1.354              0.786
 Vibration 12             0.874              1.208              0.612
 Vibration 13             0.920              1.108              0.515
 Vibration 14             0.970              1.009              0.432

 Optimization completed.
    -- Stationary point found.
 Normal termination of Gaussian 03 at Mon Jun 10 09:58:40 2013.
