 Gaussian 03, Revision D.01,
 Gaussian 03:  AM64L-G03RevD.01 13-Oct-2005

 -------------------------------------
 # freq nosymm b3lyp/cbsb7 iop(7/33=1)
 -------------------------------------

 -------------------
 Title Card Required
 -------------------
 Symbolic Z-matrix:
 Charge =  0 Multiplicity = 1

                          Input orientation:
 ---------------------------------------------------------------------
 Center     Atomic     Atomic              Coordinates (Angstroms)
 Number     Number      Type              X           Y           Z
 ---------------------------------------------------------------------
    1          6             0       -3.121518   -0.495529    0.046265
    2          1             0       -2.480320   -1.187614   -0.510980
    3          1             0       -3.190132    0.422536   -0.548007
    4          1             0       -4.121280   -0.935073    0.092673
    5          6             0       -2.580320   -0.225832    1.421114
    6          1             0       -1.584416    0.211786    1.486454
    7          6             0       -3.243160   -0.489432    2.545987
    8          1             0       -4.237264   -0.924397    2.547951
    9          8             0       -2.815325   -0.272267    3.824076
   10          1             0       -1.932064    0.112951    3.796457
 ---------------------------------------------------------------------

 SCF Done:  E(RB+HF-LYP) =  -193.186659034     A.U. after   13 cycles

 Alpha  occ. eigenvalues --  -19.14257 -10.21906 -10.16700 -10.16024  -1.05560
 Alpha  occ. eigenvalues --   -0.78173  -0.68094  -0.60392  -0.50684  -0.45772
 Alpha  occ. eigenvalues --   -0.41576  -0.40207  -0.38076  -0.36720  -0.35994
 Alpha  occ. eigenvalues --   -0.22424
 Alpha virt. eigenvalues --    0.03558   0.03665   0.05702   0.07747   0.11678
 Alpha virt. eigenvalues --    0.11872   0.13338   0.21264   0.24552   0.30072
 Alpha virt. eigenvalues --    0.30843   0.34045   0.37396   0.40850   0.43287

 Mulliken atomic charges:
              1
     1  C   -0.279018
     2  H    0.112177
     3  H    0.112226
     4  H    0.103702
     5  C   -0.240262
     6  H    0.084743
     7  C    0.093987
     8  H    0.106922
     9  O   -0.336622
    10  H    0.242146
 Sum of Mulliken charges=   0.00000

 Dipole moment (field-independent basis, Debye):
    X=     0.8798    Y=     0.3676    Z=    -0.6928  Tot=     1.1786
 Quadrupole moment (field-independent basis, Debye-Ang):
   XX=   -27.5328   YY=   -26.3316   ZZ=   -29.7053
   XY=     0.6697   XZ=     5.9719   YZ=     1.9430

  Exact polarizability:  35.768   4.712  26.936  -2.191  -0.299  53.074
 Approx polarizability:  50.999   7.077  37.383  -8.702  -2.871  74.464

                     1                      2                      3
                     A                      A                      A
 Frequencies --   198.2223               267.1665               295.7584
 Red. masses --     1.2174                 2.1258                 2.8110
 Frc consts  --     0.0282                 0.0894                 0.1449
 IR Inten    --     0.0014                15.4807                 9.0422

                     4                      5                      6
                     A                      A                      A
 Frequencies --   450.6839               541.0476               802.7833
 Red. masses --     1.2998                 3.4231                 1.5932
 Frc consts  --     0.1555                 0.5904                 0.6049
 IR Inten    --    80.2493                 2.9556                16.7750

                     7                      8                      9
                     A                      A                      A
 Frequencies --   931.9510               965.6955              1064.3690
 Red. masses --     1.5800                 1.1275                 1.4254
 Frc consts  --     0.8085                 0.6195                 0.9514
 IR Inten    --    13.3637                59.0075                 0.0493

                    10                     11                     12
                     A                      A                      A
 Frequencies --  1108.6477              1136.5049              1263.8821
 Red. masses --     2.0864                 2.6059                 1.5477
 Frc consts  --     1.5109                 1.9831                 1.4567
 IR Inten    --    10.5977               215.3678                18.2064

                    13                     14                     15
                     A                      A                      A
 Frequencies --  1336.1071              1395.7864              1424.4262
 Red. masses --     1.2952                 1.2243                 1.2943
 Frc consts  --     1.3623                 1.4054                 1.5472
 IR Inten    --    12.8413                18.5228                 5.8776

                    16                     17                     18
                     A                      A                      A
 Frequencies --  1480.4455              1501.1400              1735.7747
 Red. masses --     1.0432                 1.0509                 5.3419
 Frc consts  --     1.3472                 1.3953                 9.4828
 IR Inten    --     7.0510                10.2801               106.5580

                    19                     20                     21
                     A                      A                      A
 Frequencies --  3008.4700              3048.2220              3084.4394
 Red. masses --     1.0368                 1.1006                 1.0977
 Frc consts  --     5.5286                 6.0251                 6.1529
 IR Inten    --    45.9692                32.5881                17.3379

                    22                     23                     24
                     A                      A                      A
 Frequencies --  3111.7291              3175.2221              3810.1134
 Red. masses --     1.0898                 1.0914                 1.0653
 Frc consts  --     6.2175                 6.4832                 9.1114
 IR Inten    --    36.9450                14.7249                30.1892

 - Thermochemistry -
 -------------------
 Temperature   298.150 Kelvin.  Pressure   1.00000 Atm.
 Atom  1 has atomic number  6 and mass  12.00000

 Molecular mass:    58.04186 amu.
 Principal axes and moments of inertia in atomic units:
                           1         2         3
     EIGENVALUES --    43.96403 460.95332 493.76838
           X            0.04843   0.91487  -0.40084
           Y            0.04476   0.39892   0.91589
           Z            0.99782  -0.06230  -0.02163
 This molecule is an asymmetric top.
 Rotational symmetry number  1.
 Rotational temperatures (Kelvin)      1.97011     0.18790     0.17541
 Rotational constants (GHZ):          41.05040     3.91524     3.65504
 Zero-point vibrational energy     222138.1 (Joules/Mol)
                                   53.09228 (Kcal/Mol)
 Warning -- explicit consideration of   5 degrees of freedom as
           vibrations may cause significant error
 Vibrational temperatures:    285.20   384.39   425.53   648.43   778.45
          (Kelvin)           1155.02  1340.87  1389.42  1531.39  1595.09
                             1635.18  1818.44  1922.36  2008.22  2049.43
                             2130.03  2159.80  2497.39  4328.51  4385.71
                             4437.81  4477.08  4568.43  5481.90

 Zero-point correction=                           0.084608 (Hartree/Particle)
 Thermal correction to Energy=                    0.089642
 Thermal correction to Enthalpy=                  0.090586
 Thermal correction to Gibbs Free Energy=         0.057699
 Sum of electronic and zero-point Energies=           -193.102051
 Sum of electronic and thermal Energies=              -193.097017
 Sum of electronic and thermal Enthalpies=            -193.096073
 Sum of electronic and thermal Free Energies=         -193.128960

                     E (Thermal)             CV                S
                      KCal/Mol        Cal/Mol-Kelvin    Cal/Mol-Kelvin
 Total                   56.251             16.783             69.216
 Electronic               0.000              0.000              0.000
 Translational            0.889              2.981             38.096
 Rotational               0.889              2.981             23.819
 Vibrational             54.474             10.822              7.301
 Vibration  1             0.637              1.842              2.150
 Vibration  2             0.672              1.733              1.614
 Vibration  3             0.690              1.682              1.441
 Vibration  4             0.809              1.359              0.794
 Vibration  5             0.896              1.159              0.563

 Optimization completed.
    -- Stationary point found.
 Normal termination of Gaussian 03 at Tue Jul 29 04:05:44 2014.
