 Gaussian 03, Revision D.01,
 Gaussian 03:  AM64L-G03RevD.01 13-Oct-2005

 -------------------------------------
 # freq nosymm b3lyp/cbsb7 iop(7/33=1)
 -------------------------------------

 -------------------
 Title Card Required
 -------------------
 Symbolic Z-matrix:
 Charge =  0 Multiplicity = 2

                          Input orientation:
 ---------------------------------------------------------------------
 Center     Atomic     Atomic              Coordinates (Angstroms)
 Number     Number      Type              X           Y           Z
 ---------------------------------------------------------------------
    1          8             0        1.183411   -1.653804    0.068556
    2          8             0        1.639910   -0.307860    0.078316
    3          6             0        0.594826    0.407417   -0.598082
    4          1             0        0.658363    0.248551   -1.678846
    5          8             0        0.780580    1.760963   -0.377347
    6          1             0        0.865859    1.899919    0.574314
    7          6             0       -0.714697   -0.209141   -0.039836
    8          1             0       -0.012483   -1.343337    0.101430
    9          6             0       -1.845824   -0.362183   -1.021590
   10          1             0       -2.663747   -0.951418   -0.598611
   11          1             0       -2.259356    0.620269   -1.289913
   12          1             0       -1.515143   -0.841863   -1.946559
   13          6             0       -1.089998    0.250767    1.349492
   14          1             0       -1.860581   -0.393940    1.778567
   15          1             0       -0.227104    0.240156    2.020821
   16          1             0       -1.497794    1.270216    1.327083
 ---------------------------------------------------------------------

 SCF Done:  E(UB+HF-LYP) =  -383.446108933     A.U. after   22 cycles

 Alpha  occ. eigenvalues --  -19.18378 -19.17481 -19.15079 -10.28900 -10.21554
 Alpha  occ. eigenvalues --  -10.18584 -10.18489  -1.14176  -1.06278  -0.87190
 Alpha  occ. eigenvalues --   -0.82953  -0.71962  -0.69310  -0.60721  -0.54682
 Alpha  occ. eigenvalues --   -0.51267  -0.50073  -0.47596  -0.44253  -0.42849
 Alpha  occ. eigenvalues --   -0.42100  -0.41130  -0.39616  -0.37745  -0.36983
 Alpha  occ. eigenvalues --   -0.35740  -0.31911  -0.26026  -0.24139
 Alpha virt. eigenvalues --    0.02041   0.03263   0.05400   0.07876   0.08180
 Alpha virt. eigenvalues --    0.09307   0.09725   0.12351   0.13444   0.14153
 Alpha virt. eigenvalues --    0.15089   0.17531   0.20926   0.23050   0.26289

  Beta  occ. eigenvalues --  -19.18236 -19.16211 -19.15007 -10.28905 -10.20713
  Beta  occ. eigenvalues --  -10.18610 -10.18518  -1.13136  -1.05850  -0.85223
  Beta  occ. eigenvalues --   -0.81727  -0.71790  -0.68907  -0.59807  -0.53415
  Beta  occ. eigenvalues --   -0.50915  -0.49121  -0.46258  -0.43743  -0.41743
  Beta  occ. eigenvalues --   -0.41382  -0.40751  -0.39026  -0.37437  -0.36305
  Beta  occ. eigenvalues --   -0.33934  -0.30911  -0.24477
  Beta virt. eigenvalues --   -0.12955   0.02217   0.03765   0.05748   0.07936
  Beta virt. eigenvalues --    0.08339   0.09501   0.09799   0.12511   0.13543
  Beta virt. eigenvalues --    0.15023   0.15755   0.18335   0.21333   0.23797

 Mulliken atomic charges:
              1
     1  O   -0.222566
     2  O   -0.223519
     3  C    0.279903
     4  H    0.123914
     5  O   -0.350289
     6  H    0.243476
     7  C   -0.267866
     8  H    0.223276
     9  C   -0.259455
    10  H    0.120977
    11  H    0.125812
    12  H    0.120603
    13  C   -0.290023
    14  H    0.127640
    15  H    0.125520
    16  H    0.122598
 Sum of Mulliken charges=   0.00000

 Dipole moment (field-independent basis, Debye):
    X=    -3.1571    Y=     1.0719    Z=     0.5162  Tot=     3.3738
 Quadrupole moment (field-independent basis, Debye-Ang):
   XX=   -45.8535   YY=   -46.5300   ZZ=   -40.7628
   XY=     3.0106   XZ=     0.3620   YZ=     3.3319

  Exact polarizability:  72.592  -4.698  61.530  -0.063   1.437  56.297
 Approx polarizability: 102.889 -10.327 100.837   1.902  -0.876  75.651

 ******    1 imaginary frequencies (negative Signs) ******

                     1                      2                      3
                     A                      A                      A
 Frequencies -- -1945.7487               103.4909               185.6286
 Red. masses --     1.1073                 3.3552                 1.0936
 Frc consts  --     2.4701                 0.0212                 0.0222
 IR Inten    --   653.3767                 0.6202                 0.2296

                     4                      5                      6
                     A                      A                      A
 Frequencies --   218.9931               225.4407               255.6328
 Red. masses --     4.9958                 1.1910                 2.7539
 Frc consts  --     0.1412                 0.0357                 0.1060
 IR Inten    --     3.6594                 1.4626                 3.7730

                     7                      8                      9
                     A                      A                      A
 Frequencies --   263.3320               313.3989               366.4636
 Red. masses --     2.5749                 2.5813                 1.3110
 Frc consts  --     0.1052                 0.1494                 0.1037
 IR Inten    --     1.2228                 3.2301                69.8711

                    10                     11                     12
                     A                      A                      A
 Frequencies --   464.8189               578.9106               583.1637
 Red. masses --     2.9559                 4.0430                 3.4165
 Frc consts  --     0.3763                 0.7983                 0.6846
 IR Inten    --    33.8450                 6.1732                 4.5136

                    13                     14                     15
                     A                      A                      A
 Frequencies --   654.1006               792.1927               932.7468
 Red. masses --     5.6747                 3.3950                 1.7048
 Frc consts  --     1.4305                 1.2553                 0.8739
 IR Inten    --     1.7738                 7.9677                 2.9480

                    16                     17                     18
                     A                      A                      A
 Frequencies --   941.2885               955.3505               965.7577
 Red. masses --     2.7118                 2.7376                 3.6240
 Frc consts  --     1.4157                 1.4721                 1.9915
 IR Inten    --    11.8014                19.7669                21.3213

                    19                     20                     21
                     A                      A                      A
 Frequencies --   981.5134              1092.8228              1115.8180
 Red. masses --     1.4676                 1.5196                 1.6068
 Frc consts  --     0.8330                 1.0692                 1.1787
 IR Inten    --     3.1697                47.1924                19.6133

                    22                     23                     24
                     A                      A                      A
 Frequencies --  1152.4444              1220.4561              1250.3324
 Red. masses --     2.1388                 2.0934                 2.6689
 Frc consts  --     1.6736                 1.8371                 2.4583
 IR Inten    --   153.8182                 5.4207                21.1479

                    25                     26                     27
                     A                      A                      A
 Frequencies --  1305.2275              1339.5547              1400.2683
 Red. masses --     1.3519                 1.5555                 1.3163
 Frc consts  --     1.3569                 1.6446                 1.5206
 IR Inten    --     1.1038                 9.3756                13.3014

                    28                     29                     30
                     A                      A                      A
 Frequencies --  1411.4759              1433.1755              1476.8299
 Red. masses --     1.2131                 1.2270                 1.0495
 Frc consts  --     1.4239                 1.4848                 1.3486
 IR Inten    --    10.9436                64.0962                 2.2823

                    31                     32                     33
                     A                      A                      A
 Frequencies --  1480.7855              1496.9083              1501.3156
 Red. masses --     1.0575                 1.0602                 1.0547
 Frc consts  --     1.3663                 1.3996                 1.4007
 IR Inten    --     6.8277                 9.5071                13.6193

                    34                     35                     36
                     A                      A                      A
 Frequencies --  1721.3567              2991.4049              2999.1807
 Red. masses --     1.0443                 1.0484                 1.0471
 Frc consts  --     1.8232                 5.5277                 5.5495
 IR Inten    --    17.0880                 8.5694                21.6471

                    37                     38                     39
                     A                      A                      A
 Frequencies --  3056.3782              3061.8485              3068.1971
 Red. masses --     1.0866                 1.0830                 1.0861
 Frc consts  --     5.9804                 5.9821                 6.0240
 IR Inten    --    31.4619                21.6326                12.6679

                    40                     41                     42
                     A                      A                      A
 Frequencies --  3097.0110              3100.3758              3794.0977
 Red. masses --     1.1026                 1.1018                 1.0649
 Frc consts  --     6.2311                 6.2398                 9.0320
 IR Inten    --    16.0034                18.6033                35.4292

 - Thermochemistry -
 -------------------
 Temperature   298.150 Kelvin.  Pressure   1.00000 Atm.
 Atom  1 has atomic number  8 and mass  15.99491

 Molecular mass:   105.05517 amu.
 Principal axes and moments of inertia in atomic units:
                           1         2         3
     EIGENVALUES --   597.68817 784.79051 964.84674
           X            0.99558   0.09309  -0.01247
           Y           -0.09193   0.99303   0.07381
           Z            0.01926  -0.07233   0.99719
 This molecule is an asymmetric top.
 Rotational symmetry number  1.
 Warning -- assumption of classical behavior for rotation
           may cause significant error
 Rotational temperatures (Kelvin)      0.14491     0.11037     0.08977
 Rotational constants (GHZ):           3.01954     2.29965     1.87050
    1 imaginary frequencies ignored.
 Zero-point vibrational energy     331063.5 (Joules/Mol)
                                   79.12607 (Kcal/Mol)
 Warning -- explicit consideration of  11 degrees of freedom as
           vibrations may cause significant error
 Vibrational temperatures:    148.90   267.08   315.08   324.36   367.80
          (Kelvin)            378.88   450.91   527.26   668.77   832.92
                              839.04   941.10  1139.79  1342.01  1354.30
                             1374.53  1389.51  1412.18  1572.33  1605.41
                             1658.11  1755.96  1798.95  1877.93  1927.32
                             2014.67  2030.80  2062.02  2124.83  2130.52
                             2153.71  2160.06  2476.65  4303.96  4315.15
                             4397.44  4405.31  4414.45  4455.90  4460.74
                             5458.85

 Zero-point correction=                           0.126095 (Hartree/Particle)
 Thermal correction to Energy=                    0.134175
 Thermal correction to Enthalpy=                  0.135119
 Thermal correction to Gibbs Free Energy=         0.093584
 Sum of electronic and zero-point Energies=           -383.320014
 Sum of electronic and thermal Energies=              -383.311934
 Sum of electronic and thermal Enthalpies=            -383.310990
 Sum of electronic and thermal Free Energies=         -383.352525

                     E (Thermal)             CV                S
                      KCal/Mol        Cal/Mol-Kelvin    Cal/Mol-Kelvin
 Total                   84.196             29.347             87.418
 Electronic               0.000              0.000              1.377
 Translational            0.889              2.981             39.865
 Rotational               0.889              2.981             27.606
 Vibrational             82.418             23.386             18.569
 Vibration  1             0.605              1.946              3.387
 Vibration  2             0.632              1.859              2.271
 Vibration  3             0.647              1.812              1.967
 Vibration  4             0.650              1.802              1.915
 Vibration  5             0.666              1.753              1.691
 Vibration  6             0.670              1.740              1.640
 Vibration  7             0.701              1.648              1.344
 Vibration  8             0.739              1.541              1.095
 Vibration  9             0.822              1.328              0.752
 Vibration 10             0.935              1.077              0.487
 Vibration 11             0.940              1.068              0.480

 Optimization completed.
    -- Stationary point found.
 Normal termination of Gaussian 03 at Tue Jul 15 22:54:12 2014.
