 Gaussian 03, Revision D.01,
 Gaussian 03:  AM64L-G03RevD.01 13-Oct-2005

 -------------------------------------
 # freq nosymm b3lyp/cbsb7 iop(7/33=1)
 -------------------------------------

 ----------
 HO2 : freq
 ----------
 Symbolic Z-matrix:
 Charge =  0 Multiplicity = 2

                          Input orientation:
 ---------------------------------------------------------------------
 Center     Atomic     Atomic              Coordinates (Angstroms)
 Number     Number      Type              X           Y           Z
 ---------------------------------------------------------------------
    1          8             0        0.000000    0.000000    0.000000
    2          1             0        0.000000    0.000000    0.975441
    3          8             0        1.279664    0.000000   -0.355442
 ---------------------------------------------------------------------

 SCF Done:  E(UB+HF-LYP) =  -150.950410881     A.U. after   15 cycles

 Alpha  occ. eigenvalues --  -19.24368 -19.20182  -1.20324  -0.87610  -0.56746
 Alpha  occ. eigenvalues --   -0.49707  -0.48196  -0.30596  -0.29980
 Alpha virt. eigenvalues --    0.01138   0.10556   0.35883   0.68499   0.69995
 Alpha virt. eigenvalues --    0.74640   0.74809   0.79344   0.81853   0.99137
 Alpha virt. eigenvalues --    1.22801   1.29773   1.43072   1.87344   2.29348

  Beta  occ. eigenvalues --  -19.23498 -19.18093  -1.17618  -0.83469  -0.55202
  Beta  occ. eigenvalues --   -0.46644  -0.41809  -0.28056
  Beta virt. eigenvalues --   -0.12158   0.01485   0.12631   0.36112   0.70657
  Beta virt. eigenvalues --    0.72165   0.75080   0.75893   0.82690   0.84422
  Beta virt. eigenvalues --    1.00303   1.24622   1.30243   1.43091   1.87585

 Mulliken atomic charges:
              1
     1  O   -0.135459
     2  H    0.278840
     3  O   -0.143381
 Sum of Mulliken charges=   0.00000

 Dipole moment (field-independent basis, Debye):
    X=    -0.8783    Y=     0.0000    Z=     2.1335  Tot=     2.3072
 Quadrupole moment (field-independent basis, Debye-Ang):
   XX=   -12.7049   YY=   -10.7618   ZZ=    -9.4317
   XY=     0.0000   XZ=     0.2360   YZ=     0.0000

  Exact polarizability:  12.986   0.000   4.639  -3.474   0.000   8.302
 Approx polarizability:  21.067   0.000   5.389  -5.497   0.000  10.549

                     1                      2                      3
                    A"                     A"                     A"
 Frequencies --  1163.7270              1428.0376              3610.3379
 Red. masses --    11.9217                 1.1440                 1.0692
 Frc consts  --     9.5124                 1.3746                 8.2109
 IR Inten    --    28.7673                33.4566                21.5585

 - Thermochemistry -
 -------------------
 Temperature   298.150 Kelvin.  Pressure   1.00000 Atm.
 Atom  1 has atomic number  8 and mass  15.99491

 Molecular mass:    32.99765 amu.
 Principal axes and moments of inertia in atomic units:
                           1         2         3
     EIGENVALUES --     2.89965  53.54381  56.44346
           X            0.94572   0.32497   0.00000
           Y            0.00000   0.00000   1.00000
           Z           -0.32497   0.94572   0.00000
 This molecule is an asymmetric top.
 Rotational symmetry number  1.
 Rotational temperatures (Kelvin)     29.87044     1.61763     1.53452
 Rotational constants (GHZ):         622.39966    33.70588    31.97432
 Zero-point vibrational energy      37096.8 (Joules/Mol)
                                    8.86635 (Kcal/Mol)
 Vibrational temperatures:   1674.34  2054.63  5194.46
          (Kelvin)

 Zero-point correction=                           0.014129 (Hartree/Particle)
 Thermal correction to Energy=                    0.016988
 Thermal correction to Enthalpy=                  0.017932
 Thermal correction to Gibbs Free Energy=        -0.008047
 Sum of electronic and zero-point Energies=           -150.936281
 Sum of electronic and thermal Energies=              -150.933423
 Sum of electronic and thermal Enthalpies=            -150.932479
 Sum of electronic and thermal Free Energies=         -150.958458

                     E (Thermal)             CV                S
                      KCal/Mol        Cal/Mol-Kelvin    Cal/Mol-Kelvin
 Total                   10.660              6.288             54.678
 Electronic               0.000              0.000              1.377
 Translational            0.889              2.981             36.413
 Rotational               0.889              2.981             16.823
 Vibrational              8.883              0.326              0.064

 Optimization completed.
    -- Stationary point found.
 Normal termination of Gaussian 03 at Fri Apr  9 11:22:13 2010.
