 Gaussian 03, Revision D.01,
 Gaussian 03:  AM64L-G03RevD.01 13-Oct-2005

 ----------------------------
 # opt=calcall nosymm cbs-qb3
 ----------------------------

 ---------
 HO2: geom
 ---------
 Symbolic Z-matrix:
 Charge =  0 Multiplicity = 2

 SCF Done:  E(UB+HF-LYP) =  -150.949631688     A.U. after   15 cycles
 SCF Done:  E(UB+HF-LYP) =  -150.950408601     A.U. after   12 cycles
 SCF Done:  E(UB+HF-LYP) =  -150.950409466     A.U. after    8 cycles
 Optimization completed.
    -- Stationary point found.
 Normal termination of Gaussian 03 at Fri Apr  9 11:06:46 2010.

 -------------------------------------------------------
 #N Geom=AllCheck Guess=Read SCRF=Check B3LYP/CBSB7 Freq
 -------------------------------------------------------

 HO2: geom
 ---------
 Redundant internal coordinates taken from checkpoint file:
 HO2-geom.chk
 Charge =  0 Multiplicity = 2

 SCF Done:  E(UB+HF-LYP) =  -150.950409466     A.U. after    1 cycles

  Exact polarizability:  12.686   0.000   4.639  -3.659   0.000   8.601
 Approx polarizability:  20.588   0.000   5.389  -5.919   0.000  11.028

                     1                      2                      3
                    A"                     A"                     A"
 Frequencies --  1163.6498              1427.8613              3610.4617
 Red. masses --    11.9122                 1.1441                 1.0692
 Frc consts  --     9.5036                 1.3743                 8.2114
 IR Inten    --    28.7834                33.4441                21.5577

 - Thermochemistry -
 -------------------
 Temperature   298.150 Kelvin.  Pressure   1.00000 Atm.
 Atom  1 has atomic number  8 and mass  15.99491

 Molecular mass:    32.99765 amu.
 Principal axes and moments of inertia in atomic units:
                           1         2         3
     EIGENVALUES --     2.89965  53.54378  56.44343
           X            0.93126   0.36436   0.00000
           Y            0.00000   0.00000   1.00000
           Z           -0.36436   0.93126   0.00000
 This molecule is an asymmetric top.
 Rotational symmetry number  1.
 Rotational temperatures (Kelvin)     29.87039     1.61763     1.53452
 Rotational constants (GHZ):         622.39861    33.70590    31.97434
 Zero-point vibrational energy      37096.0 (Joules/Mol)
                                    8.86617 (Kcal/Mol)
 Vibrational temperatures:   1674.23  2054.37  5194.64
          (Kelvin)

 Zero-point correction=                           0.014129 (Hartree/Particle)
 Thermal correction to Energy=                    0.016988
 Thermal correction to Enthalpy=                  0.017932
 Thermal correction to Gibbs Free Energy=        -0.008047
 Sum of electronic and zero-point Energies=           -150.936280
 Sum of electronic and thermal Energies=              -150.933422
 Sum of electronic and thermal Enthalpies=            -150.932478
 Sum of electronic and thermal Free Energies=         -150.958457

                     E (Thermal)             CV                S
                      KCal/Mol        Cal/Mol-Kelvin    Cal/Mol-Kelvin
 Total                   10.660              6.288             54.678
 Electronic               0.000              0.000              1.377
 Translational            0.889              2.981             36.413
 Rotational               0.889              2.981             16.823
 Vibrational              8.882              0.326              0.064

 Optimization completed.
    -- Stationary point found.
 Normal termination of Gaussian 03 at Fri Apr  9 11:07:19 2010.

 ---------------------------------------------------------
 #N Geom=AllCheck Guess=Read SCRF=Check CCSD(T)/6-31+G(d')
 ---------------------------------------------------------

 HO2: geom
 ---------
 Redundant internal coordinates taken from checkpoint file:
 HO2-geom.chk
 Charge =  0 Multiplicity = 2

 SCF Done:  E(UHF) =  -150.170014348     A.U. after   18 cycles
 CCSD(T)= -0.15054629009D+03
 MP4SDQ=-150.5336532\CCSD=-150.5368442\CCSD(T)=-150.5462901\S2=0.761536
 Normal termination of Gaussian 03 at Fri Apr  9 11:09:28 2010.

 ---------------------------------------------------
 #N Geom=AllCheck Guess=Read SCRF=Check MP4SDQ/CBSB4
 ---------------------------------------------------

 HO2: geom
 ---------
 Redundant internal coordinates taken from checkpoint file:
 HO2-geom.chk
 Charge =  0 Multiplicity = 2

 SCF Done:  E(UHF) =  -150.178494372     A.U. after   14 cycles
 Normal termination of Gaussian 03 at Fri Apr  9 11:09:57 2010.

 ----------------------------------------------------------------------
 #N Geom=AllCheck Guess=Read SCRF=Check MP2/CBSB3 CBSExtrap=(NMin=10,Mi
 nPop)
 ----------------------------------------------------------------------

 HO2: geom
 ---------
 Redundant internal coordinates taken from checkpoint file:
 HO2-geom.chk
 Charge =  0 Multiplicity = 2

                          Input orientation:
 ---------------------------------------------------------------------
 Center     Atomic     Atomic              Coordinates (Angstroms)
 Number     Number      Type              X           Y           Z
 ---------------------------------------------------------------------
    1          8             0       -0.020087    0.000000   -0.015464
    2          1             0        0.020836    0.000000    0.959118
    3          8             0        1.243538    0.000000   -0.424279
 ---------------------------------------------------------------------

 SCF Done:  E(UHF) =  -150.231784318     A.U. after   13 cycles
 E2 =    -0.4382850419D+00 EUMP2 =    -0.15067006935967D+03
 E2(CBS)=      -0.486507 CBS-Int=       0.013386 OIii=       3.641678

 Alpha  occ. eigenvalues --  -20.69112 -20.67500  -1.57835  -1.20970  -0.77431
 Alpha  occ. eigenvalues --   -0.75918  -0.67647  -0.52881  -0.52494
 Alpha virt. eigenvalues --    0.04393   0.16451   0.21475   0.22179   0.24289
 Alpha virt. eigenvalues --    0.27611   0.28333   0.28397   0.32018   0.39191
 Alpha virt. eigenvalues --    0.42609   0.66439   0.83567   0.87389   1.04814

  Beta  occ. eigenvalues --  -20.66725 -20.64966  -1.51578  -1.10641  -0.75431
  Beta  occ. eigenvalues --   -0.65225  -0.57269  -0.48820
  Beta virt. eigenvalues --    0.04432   0.10220   0.17113   0.21534   0.23957
  Beta virt. eigenvalues --    0.24504   0.27684   0.28614   0.32007   0.32699
  Beta virt. eigenvalues --    0.42359   0.42849   0.66539   0.83769   0.87290

 Mulliken atomic charges:
              1
     1  O   -0.236512
     2  H    0.282379
     3  O   -0.045866
 Sum of Mulliken charges=   0.00000

 Dipole moment (field-independent basis, Debye):
    X=    -0.3377    Y=     0.0000    Z=     2.0012  Tot=     2.0295
 Quadrupole moment (field-independent basis, Debye-Ang):
   XX=   -12.2632   YY=   -10.9432   ZZ=    -9.4262
   XY=     0.0000   XZ=     0.0831   YZ=     0.0000

 1\1\GINC-NODE04\Mixed\CBS-QB3\CBS-QB3\H1O2(2)\MRHARPER\09-Apr-2010\0\\
 # opt=calcall nosymm cbs-qb3\\HO2: geom\\0,2\O,0,-0.0200869307,0.,-0.0
 154643969\H,0,0.0208360402,0.,0.9591184293\O,0,1.2435376582,0.,-0.4242
 790879\\Version=AM64L-G03RevD.01\HF/CbsB3=-150.2317843\E2(CBS)/CbsB3=-
 0.4865066\CBS-Int/CbsB3=0.0133859\OIii/CbsB3=3.6416783\MP2/CbsB4=-150.
 532153\MP4(SDQ)/CbsB4=-150.5484944\MP4(SDQ)/6-31+G(d')=-150.5336532\QC
 ISD(T)/6-31+G(d')=-150.5462901\CBSQB3=-150.741103\FreqCoord=-0.0379587
 978,0.,-0.029223475,0.0393744097,0.,1.8124711613,2.3499456113,0.,-0.80

 Normal termination of Gaussian 03 at Fri Apr  9 11:10:24 2010.
