 Gaussian 03, Revision D.01,
 Gaussian 03:  AM64L-G03RevD.01 13-Oct-2005

 -------------------------------------
 # freq nosymm b3lyp/cbsb7 iop(7/33=1)
 -------------------------------------

 -------------------
 Title Card Required
 -------------------
 Symbolic Z-matrix:
 Charge =  0 Multiplicity = 2

                          Input orientation:
 ---------------------------------------------------------------------
 Center     Atomic     Atomic              Coordinates (Angstroms)
 Number     Number      Type              X           Y           Z
 ---------------------------------------------------------------------
    1          6             0       -0.507704    0.891129    0.371858
    2          6             0       -0.316623    2.002114    1.379261
    3          1             0       -0.513980    1.503771    2.342703
    4          6             0       -1.341625    3.127187    1.208168
    5          1             0       -1.159194    3.677241    0.281213
    6          1             0       -2.355829    2.727306    1.173509
    7          1             0       -1.275336    3.833533    2.038879
    8          6             0        1.133788    2.500882    1.398503
    9          1             0        1.287313    3.197093    2.226004
   10          1             0        1.840968    1.675554    1.523521
   11          1             0        1.380412    3.019506    0.469219
   12          8             0       -1.669310    0.521934   -0.005335
   13          1             0        0.321129    0.172307    0.297835
   14          8             0       -0.015395    1.744824   -1.352168
   15          8             0       -1.068355    1.452284   -2.033704
   16          1             0       -1.667200    0.858803   -1.149597
 ---------------------------------------------------------------------

 SCF Done:  E(UB+HF-LYP) =  -383.482887361     A.U. after   21 cycles

 Alpha  occ. eigenvalues --  -19.23169 -19.23016 -19.12998 -10.28359 -10.19836
 Alpha  occ. eigenvalues --  -10.17371 -10.16755  -1.22561  -1.06192  -0.84863
 Alpha  occ. eigenvalues --   -0.81209  -0.70114  -0.66732  -0.59150  -0.57130
 Alpha  occ. eigenvalues --   -0.52307  -0.50070  -0.48782  -0.47143  -0.46035
 Alpha  occ. eigenvalues --   -0.40877  -0.39779  -0.38564  -0.37740  -0.35852
 Alpha  occ. eigenvalues --   -0.35739  -0.30891  -0.30277  -0.27829
 Alpha virt. eigenvalues --   -0.03051   0.03840   0.06725   0.07619   0.08317
 Alpha virt. eigenvalues --    0.09999   0.10818   0.12068   0.13714   0.14219
 Alpha virt. eigenvalues --    0.17141   0.19170   0.21794   0.23231   0.25573

  Beta  occ. eigenvalues --  -19.21570 -19.21515 -19.12997 -10.28403 -10.19824
  Beta  occ. eigenvalues --  -10.17372 -10.16755  -1.19616  -1.06089  -0.82725
  Beta  occ. eigenvalues --   -0.79227  -0.70106  -0.66604  -0.58457  -0.56961
  Beta  occ. eigenvalues --   -0.50281  -0.48500  -0.46863  -0.45952  -0.42077
  Beta  occ. eigenvalues --   -0.40721  -0.39733  -0.38411  -0.37395  -0.35772
  Beta  occ. eigenvalues --   -0.35546  -0.29545  -0.28156
  Beta virt. eigenvalues --   -0.12577  -0.02732   0.03872   0.06846   0.07704
  Beta virt. eigenvalues --    0.08357   0.10019   0.11361   0.12350   0.13888
  Beta virt. eigenvalues --    0.14229   0.18126   0.19214   0.21854   0.23349

 Mulliken atomic charges:
              1
     1  C    0.191987
     2  C   -0.203734
     3  H    0.139456
     4  C   -0.284245
     5  H    0.114456
     6  H    0.125288
     7  H    0.110054
     8  C   -0.282704
     9  H    0.115047
    10  H    0.106387
    11  H    0.126457
    12  O   -0.381679
    13  H    0.122069
    14  O   -0.155591
    15  O   -0.135228
    16  H    0.291980
 Sum of Mulliken charges=   0.00000

 Dipole moment (field-independent basis, Debye):
    X=     0.9735    Y=     0.2512    Z=     1.8793  Tot=     2.1313
 Quadrupole moment (field-independent basis, Debye-Ang):
   XX=   -45.2288   YY=   -42.3115   ZZ=   -43.9762
   XY=    -0.5583   XZ=     0.7319   YZ=     4.3468

  Exact polarizability:  60.254   1.596  53.154   5.566   1.704  68.404
 Approx polarizability:  90.749   7.675  74.714   6.496  -6.234 104.205

 ******    1 imaginary frequencies (negative Signs) ******

                     1                      2                      3
                     A                      A                      A
 Frequencies --  -848.4221                76.3954               109.7448
 Red. masses --     1.4502                 3.3724                 5.6716
 Frc consts  --     0.6150                 0.0116                 0.0402
 IR Inten    --   142.3759                 0.3588                 1.1445

                     4                      5                      6
                     A                      A                      A
 Frequencies --   191.4672               211.6533               230.5384
 Red. masses --     4.6578                 1.0590                 1.1265
 Frc consts  --     0.1006                 0.0280                 0.0353
 IR Inten    --     1.8581                 0.1264                 2.1309

                     7                      8                      9
                     A                      A                      A
 Frequencies --   282.8033               350.9172               408.9099
 Red. masses --     3.4302                 2.3772                 2.8568
 Frc consts  --     0.1616                 0.1725                 0.2814
 IR Inten    --     7.2535                 5.6448                49.9742

                    10                     11                     12
                     A                      A                      A
 Frequencies --   518.0505               577.1470               664.6074
 Red. masses --     3.7780                 3.6817                 3.6921
 Frc consts  --     0.5974                 0.7226                 0.9609
 IR Inten    --    27.7701                50.9243                17.8346

                    13                     14                     15
                     A                      A                      A
 Frequencies --   730.0626               811.3578               934.5201
 Red. masses --     9.5909                 2.9482                 1.2997
 Frc consts  --     3.0118                 1.1435                 0.6687
 IR Inten    --    10.1848                12.3347                 5.4435

                    16                     17                     18
                     A                      A                      A
 Frequencies --   952.3958               973.0665               982.5237
 Red. masses --     1.5614                 1.3386                 1.2933
 Frc consts  --     0.8344                 0.7468                 0.7356
 IR Inten    --    14.6537                 7.4419                17.7902

                    19                     20                     21
                     A                      A                      A
 Frequencies --  1037.7732              1149.4859              1156.9776
 Red. masses --     1.0921                 2.1794                 1.7027
 Frc consts  --     0.6930                 1.6967                 1.3429
 IR Inten    --    87.4060                 6.1390                44.1488

                    22                     23                     24
                     A                      A                      A
 Frequencies --  1210.0058              1289.7228              1315.3941
 Red. masses --     1.7451                12.2474                 1.3569
 Frc consts  --     1.5054                12.0029                 1.3833
 IR Inten    --     5.1686                89.8711                 2.9486

                    25                     26                     27
                     A                      A                      A
 Frequencies --  1341.9798              1375.3814              1404.5959
 Red. masses --     1.6892                 1.2955                 1.2327
 Frc consts  --     1.7923                 1.4439                 1.4329
 IR Inten    --     5.0704                28.8663                11.4464

                    28                     29                     30
                     A                      A                      A
 Frequencies --  1426.0881              1492.1808              1496.5014
 Red. masses --     1.2343                 1.0430                 1.0497
 Frc consts  --     1.4790                 1.3683                 1.3850
 IR Inten    --     3.1665                 2.5077                 1.9886

                    31                     32                     33
                     A                      A                      A
 Frequencies --  1506.7408              1515.6233              1592.9690
 Red. masses --     1.0489                 1.0646                 3.6614
 Frc consts  --     1.4030                 1.4408                 5.4741
 IR Inten    --    19.7479                12.7127               198.4255

                    34                     35                     36
                     A                      A                      A
 Frequencies --  1868.3943              2964.1781              3001.3594
 Red. masses --     1.0433                 1.0804                 1.0874
 Frc consts  --     2.1459                 5.5932                 5.7712
 IR Inten    --    85.2331                14.6979                61.7111

                    37                     38                     39
                     A                      A                      A
 Frequencies --  3032.0416              3039.1954              3093.5681
 Red. masses --     1.0362                 1.0361                 1.1002
 Frc consts  --     5.6126                 5.6388                 6.2038
 IR Inten    --    30.2025                12.4838                29.8618

                    40                     41                     42
                     A                      A                      A
 Frequencies --  3100.3665              3107.1527              3119.2722
 Red. masses --     1.1024                 1.1025                 1.1014
 Frc consts  --     6.2432                 6.2710                 6.3137
 IR Inten    --    12.2576                31.7238                14.7279

 - Thermochemistry -
 -------------------
 Temperature   298.150 Kelvin.  Pressure   1.00000 Atm.
 Atom  1 has atomic number  6 and mass  12.00000

 Molecular mass:   105.05517 amu.
 Principal axes and moments of inertia in atomic units:
                           1         2         3
     EIGENVALUES --   482.90126 962.114841066.41656
           X            0.30934   0.86011  -0.40560
           Y            0.39661   0.27096   0.87708
           Z            0.86429  -0.43219  -0.25731
 This molecule is an asymmetric top.
 Rotational symmetry number  1.
 Warning -- assumption of classical behavior for rotation
           may cause significant error
 Rotational temperatures (Kelvin)      0.17936     0.09002     0.08122
 Rotational constants (GHZ):           3.73729     1.87581     1.69234
    1 imaginary frequencies ignored.
 Zero-point vibrational energy     332819.7 (Joules/Mol)
                                   79.54582 (Kcal/Mol)
 Warning -- explicit consideration of  10 degrees of freedom as
           vibrations may cause significant error
 Vibrational temperatures:    109.92   157.90   275.48   304.52   331.69
          (Kelvin)            406.89   504.89   588.33   745.36   830.38
                              956.22  1050.40  1167.36  1344.56  1370.28
                             1400.02  1413.63  1493.12  1653.85  1664.63
                             1740.93  1855.62  1892.56  1930.81  1978.86
                             2020.90  2051.82  2146.91  2153.13  2167.86
                             2180.64  2291.92  2688.20  4264.79  4318.28
                             4362.43  4372.72  4450.95  4460.73  4470.49
                             4487.93

 Zero-point correction=                           0.126764 (Hartree/Particle)
 Thermal correction to Energy=                    0.134854
 Thermal correction to Enthalpy=                  0.135799
 Thermal correction to Gibbs Free Energy=         0.093657
 Sum of electronic and zero-point Energies=           -383.356123
 Sum of electronic and thermal Energies=              -383.348033
 Sum of electronic and thermal Enthalpies=            -383.347089
 Sum of electronic and thermal Free Energies=         -383.389230

                     E (Thermal)             CV                S
                      KCal/Mol        Cal/Mol-Kelvin    Cal/Mol-Kelvin
 Total                   84.622             28.474             88.694
 Electronic               0.000              0.000              1.377
 Translational            0.889              2.981             39.865
 Rotational               0.889              2.981             27.696
 Vibrational             82.845             22.512             19.756
 Vibration  1             0.599              1.965              3.981
 Vibration  2             0.606              1.941              3.273
 Vibration  3             0.634              1.852              2.214
 Vibration  4             0.643              1.823              2.029
 Vibration  5             0.652              1.794              1.875
 Vibration  6             0.682              1.706              1.517
 Vibration  7             0.728              1.573              1.162
 Vibration  8             0.773              1.451              0.930
 Vibration  9             0.873              1.210              0.614
 Vibration 10             0.934              1.081              0.491

 Optimization completed.
    -- Stationary point found.
 Normal termination of Gaussian 03 at Tue Jul 15 23:33:56 2014.
