 Gaussian 03, Revision D.01,
 Gaussian 03:  AM64L-G03RevD.01 13-Oct-2005

 -------------------------------------
 # freq nosymm b3lyp/cbsb7 iop(7/33=1)
 -------------------------------------

 -------------------
 Title Card Required
 -------------------
 Symbolic Z-matrix:
 Charge =  0 Multiplicity = 2

                          Input orientation:
 ---------------------------------------------------------------------
 Center     Atomic     Atomic              Coordinates (Angstroms)
 Number     Number      Type              X           Y           Z
 ---------------------------------------------------------------------
    1          6             0        0.014569   -0.078653   -0.000039
    2          6             0        0.059901   -0.072332    1.762868
    3          1             0        1.087475   -0.053203   -0.256358
    4          6             0        0.706683    1.142753    2.125017
    5          1             0       -0.999035   -0.033761    2.010628
    6          1             0        0.189710    2.094228    2.153737
    7          8             0        2.036580    1.298981    2.159301
    8          1             0        2.469689    0.435152    2.125265
    9          8             0       -0.628044   -1.178535   -0.299832
   10          8             0       -0.624431   -1.274569   -2.175108
   11          1             0       -1.562831   -1.509771   -2.143472
   12          6             0        0.710867   -1.382835    2.192657
   13          1             0        0.165434   -2.213953    1.748033
   14          1             0        1.744439   -1.470467    1.836355
   15          1             0        0.709753   -1.485320    3.280895
   16          1             0       -0.477440    0.865927   -0.276751
 ---------------------------------------------------------------------

 SCF Done:  E(UB+HF-LYP) =  -383.436533418     A.U. after   28 cycles

 Alpha  occ. eigenvalues --  -19.20200 -19.11083 -19.10022 -10.27225 -10.23068
 Alpha  occ. eigenvalues --  -10.21533 -10.18647  -1.11753  -1.00826  -0.92409
 Alpha  occ. eigenvalues --   -0.81930  -0.72454  -0.65685  -0.61113  -0.53754
 Alpha  occ. eigenvalues --   -0.52203  -0.47536  -0.45545  -0.44407  -0.42338
 Alpha  occ. eigenvalues --   -0.42223  -0.40792  -0.39073  -0.38264  -0.36856
 Alpha  occ. eigenvalues --   -0.31065  -0.27173  -0.23777  -0.19532
 Alpha virt. eigenvalues --   -0.09322   0.00577   0.03904   0.07466   0.07829
 Alpha virt. eigenvalues --    0.09502   0.09870   0.11071   0.12148   0.13528
 Alpha virt. eigenvalues --    0.14057   0.16073   0.22059   0.24573   0.27915

  Beta  occ. eigenvalues --  -19.19852 -19.11328 -19.08316 -10.26447 -10.22889
  Beta  occ. eigenvalues --  -10.21726 -10.18620  -1.10976  -1.00773  -0.88641
  Beta  occ. eigenvalues --   -0.81548  -0.71685  -0.65493  -0.60998  -0.53461
  Beta  occ. eigenvalues --   -0.51742  -0.47153  -0.44852  -0.43191  -0.42104
  Beta  occ. eigenvalues --   -0.41189  -0.39728  -0.38852  -0.37968  -0.36257
  Beta  occ. eigenvalues --   -0.27776  -0.26292  -0.23217
  Beta virt. eigenvalues --   -0.08537  -0.04330   0.00673   0.04026   0.07577
  Beta virt. eigenvalues --    0.08055   0.09579   0.10118   0.11122   0.12255
  Beta virt. eigenvalues --    0.13665   0.14084   0.16490   0.22558   0.24890

 Mulliken atomic charges:
              1
     1  C    0.120916
     2  C   -0.310367
     3  H    0.070651
     4  C    0.118292
     5  H    0.151100
     6  H    0.139795
     7  O   -0.269702
     8  H    0.260684
     9  O   -0.333315
    10  O   -0.355706
    11  H    0.238531
    12  C   -0.273897
    13  H    0.156950
    14  H    0.084953
    15  H    0.125233
    16  H    0.075881
 Sum of Mulliken charges=   0.00000

 Dipole moment (field-independent basis, Debye):
    X=     0.6307    Y=     1.5148    Z=     4.0188  Tot=     4.3409
 Quadrupole moment (field-independent basis, Debye-Ang):
   XX=   -37.4477   YY=   -45.2018   ZZ=   -42.7488
   XY=    -2.2041   XZ=     3.4381   YZ=    -3.1059

  Exact polarizability:  68.800  19.385  79.793  33.873  40.063 127.356
 Approx polarizability: 109.774  47.609 143.531  62.402  95.895 223.578

 ******    1 imaginary frequencies (negative Signs) ******

                     1                      2                      3
                     A                      A                      A
 Frequencies --  -598.4261                54.8455                95.3359
 Red. masses --    11.4921                 6.0426                 4.0887
 Frc consts  --     2.4248                 0.0107                 0.0219
 IR Inten    --   497.4257                 2.1251                 0.7485

                     4                      5                      6
                     A                      A                      A
 Frequencies --    99.5552               153.7526               172.6788
 Red. masses --     2.4706                 1.1739                 3.2206
 Frc consts  --     0.0144                 0.0164                 0.0566
 IR Inten    --     8.0355                91.9687                11.8696

                     7                      8                      9
                     A                      A                      A
 Frequencies --   217.6643               271.4458               290.3394
 Red. masses --     1.1499                 3.3459                 3.2881
 Frc consts  --     0.0321                 0.1453                 0.1633
 IR Inten    --     0.8122                 6.5906                 2.1278

                    10                     11                     12
                     A                      A                      A
 Frequencies --   305.3677               416.3491               430.1152
 Red. masses --     2.0628                 7.1225                 2.6728
 Frc consts  --     0.1133                 0.7274                 0.2913
 IR Inten    --    10.2647                60.6562                 6.3569

                    13                     14                     15
                     A                      A                      A
 Frequencies --   558.4901               644.5464               782.6381
 Red. masses --     1.7811                 2.5045                 1.3283
 Frc consts  --     0.3273                 0.6130                 0.4794
 IR Inten    --    13.2560                 7.9926               223.3909

                    16                     17                     18
                     A                      A                      A
 Frequencies --   823.4623               859.6705               918.8749
 Red. masses --     1.0953                 2.5813                 1.1983
 Frc consts  --     0.4376                 1.1240                 0.5961
 IR Inten    --    62.1785                12.9594                 0.6579

                    19                     20                     21
                     A                      A                      A
 Frequencies --  1042.1189              1065.3400              1123.9725
 Red. masses --     1.7059                 1.4276                 1.4172
 Frc consts  --     1.0915                 0.9547                 1.0549
 IR Inten    --    66.1760                13.6230                17.4071

                    22                     23                     24
                     A                      A                      A
 Frequencies --  1132.4787              1221.8016              1239.1829
 Red. masses --     1.6331                 1.7257                 1.3671
 Frc consts  --     1.2340                 1.5178                 1.2369
 IR Inten    --    95.7331                92.7883                74.9655

                    25                     26                     27
                     A                      A                      A
 Frequencies --  1247.6994              1323.8885              1352.9117
 Red. masses --     1.1885                 1.7655                 1.8424
 Frc consts  --     1.0901                 1.8231                 1.9869
 IR Inten    --    18.6133                12.4723                83.0468

                    28                     29                     30
                     A                      A                      A
 Frequencies --  1399.3018              1416.8153              1478.5148
 Red. masses --     1.3335                 1.3754                 1.1339
 Frc consts  --     1.5384                 1.6267                 1.4604
 IR Inten    --     7.0960                11.8850                12.2019

                    31                     32                     33
                     A                      A                      A
 Frequencies --  1510.4459              1521.4928              1534.9161
 Red. masses --     1.0573                 1.9548                 1.1561
 Frc consts  --     1.4212                 2.6662                 1.6047
 IR Inten    --    11.4636               140.4780                 9.8286

                    34                     35                     36
                     A                      A                      A
 Frequencies --  2919.3561              2975.2811              3012.6977
 Red. masses --     1.0514                 1.1082                 1.0474
 Frc consts  --     5.2797                 5.7800                 5.6013
 IR Inten    --    46.7725                85.1652                26.9602

                    37                     38                     39
                     A                      A                      A
 Frequencies --  3077.3918              3121.6328              3136.2199
 Red. masses --     1.0914                 1.0872                 1.0977
 Frc consts  --     6.0898                 6.2421                 6.3612
 IR Inten    --    26.4214                 8.5421                 0.8150

                    40                     41                     42
                     A                      A                      A
 Frequencies --  3200.1286              3772.8121              3789.0378
 Red. masses --     1.0901                 1.0648                 1.0677
 Frc consts  --     6.5776                 8.9299                 9.0314
 IR Inten    --    18.0690               102.5698                60.4999

 - Thermochemistry -
 -------------------
 Temperature   298.150 Kelvin.  Pressure   1.00000 Atm.
 Atom  1 has atomic number  6 and mass  12.00000

 Molecular mass:   105.05517 amu.
 Principal axes and moments of inertia in atomic units:
                           1         2         3
     EIGENVALUES --   363.274581506.820861677.21755
           X            0.42400   0.18528   0.88651
           Y            0.41883   0.82778  -0.37332
           Z            0.80300  -0.52958  -0.27337
 This molecule is an asymmetric top.
 Rotational symmetry number  1.
 Rotational temperatures (Kelvin)      0.23843     0.05748     0.05164
 Rotational constants (GHZ):           4.96798     1.19771     1.07603
    1 imaginary frequencies ignored.
 Zero-point vibrational energy     333223.2 (Joules/Mol)
                                   79.64226 (Kcal/Mol)
 Warning -- explicit consideration of  12 degrees of freedom as
           vibrations may cause significant error
 Vibrational temperatures:     78.91   137.17   143.24   221.22   248.45
          (Kelvin)            313.17   390.55   417.73   439.36   599.03
                              618.84   803.54   927.36  1126.04  1184.78
                             1236.87  1322.05  1499.37  1532.78  1617.14
                             1629.38  1757.90  1782.91  1795.16  1904.78
                             1946.54  2013.28  2038.48  2127.25  2173.19
                             2189.09  2208.40  4200.30  4280.76  4334.59
                             4427.68  4491.33  4512.32  4604.27  5428.23
                             5451.57

 Zero-point correction=                           0.126918 (Hartree/Particle)
 Thermal correction to Energy=                    0.136498
 Thermal correction to Enthalpy=                  0.137442
 Thermal correction to Gibbs Free Energy=         0.091582
 Sum of electronic and zero-point Energies=           -383.309615
 Sum of electronic and thermal Energies=              -383.300036
 Sum of electronic and thermal Enthalpies=            -383.299091
 Sum of electronic and thermal Free Energies=         -383.344951

                     E (Thermal)             CV                S
                      KCal/Mol        Cal/Mol-Kelvin    Cal/Mol-Kelvin
 Total                   85.654             32.195             96.521
 Electronic               0.000              0.000              1.377
 Translational            0.889              2.981             39.865
 Rotational               0.889              2.981             28.309
 Vibrational             83.876             26.234             26.969
 Vibration  1             0.596              1.976              4.635
 Vibration  2             0.603              1.953              3.548
 Vibration  3             0.604              1.949              3.463
 Vibration  4             0.619              1.898              2.625
 Vibration  5             0.626              1.876              2.406
 Vibration  6             0.646              1.814              1.978
 Vibration  7             0.675              1.726              1.587
 Vibration  8             0.686              1.692              1.472
 Vibration  9             0.696              1.664              1.387
 Vibration 10             0.780              1.435              0.904
 Vibration 11             0.791              1.405              0.858
 Vibration 12             0.914              1.121              0.527

 Normal termination of Gaussian 03 at Tue Jul 29 11:01:46 2014.
