 Gaussian 03, Revision D.01,
 Gaussian 03:  AM64L-G03RevD.01 13-Oct-2005

 -------------------------------------
 # freq nosymm b3lyp/cbsb7 iop(7/33=1)
 -------------------------------------

 -------
 NBO NRT
 -------
 Symbolic Z-matrix:
 Charge =  0 Multiplicity = 2

                          Input orientation:
 ---------------------------------------------------------------------
 Center     Atomic     Atomic              Coordinates (Angstroms)
 Number     Number      Type              X           Y           Z
 ---------------------------------------------------------------------
    1          6             0        0.543160   -0.801910    0.155700
    2          6             0        0.134870   -0.433510    1.945010
    3          1             0        0.236650   -1.844480    0.023500
    4          6             0        0.616350    1.005720    2.167560
    5          1             0       -0.949930   -0.503850    1.889470
    6          1             0        0.498580    1.239660    3.229270
    7          8             0       -0.138450    1.961640    1.466940
    8          1             0       -0.125030    1.702210    0.532390
    9          8             0       -0.165110    0.096530   -0.478410
   10          8             0        0.140090   -0.143770   -2.265700
   11          1             0       -0.813110   -0.176160   -2.437400
   12          6             0        0.772580   -1.475350    2.638470
   13          1             0        0.285990   -2.430680    2.793920
   14          1             0        1.817590   -1.401690    2.923020
   15          1             0        1.691910    1.066440    1.936230
   16          1             0        1.630390   -0.665610    0.159320
 ---------------------------------------------------------------------

 SCF Done:  E(UB+HF-LYP) =  -383.418642620     A.U. after   26 cycles

 Alpha  occ. eigenvalues --  -19.15266 -19.13261 -19.10510 -10.25526 -10.22981
 Alpha  occ. eigenvalues --  -10.21826 -10.21682  -1.04845  -1.01765  -0.95223
 Alpha  occ. eigenvalues --   -0.82032  -0.69272  -0.65200  -0.60068  -0.53471
 Alpha  occ. eigenvalues --   -0.48495  -0.47613  -0.46813  -0.45531  -0.45021
 Alpha  occ. eigenvalues --   -0.43488  -0.40323  -0.38875  -0.35269  -0.32102
 Alpha  occ. eigenvalues --   -0.30063  -0.27553  -0.27025  -0.23646
 Alpha virt. eigenvalues --   -0.10768   0.03044   0.04732   0.05612   0.07449
 Alpha virt. eigenvalues --    0.07781   0.09330   0.10190   0.11492   0.12712
 Alpha virt. eigenvalues --    0.14140   0.19587   0.20662   0.22682   0.26019

  Beta  occ. eigenvalues --  -19.15645 -19.11622 -19.10518 -10.25220 -10.22946
  Beta  occ. eigenvalues --  -10.22103 -10.20743  -1.04963  -1.01740  -0.91654
  Beta  occ. eigenvalues --   -0.81312  -0.68414  -0.64843  -0.59770  -0.53395
  Beta  occ. eigenvalues --   -0.47946  -0.47447  -0.46434  -0.45104  -0.44748
  Beta  occ. eigenvalues --   -0.42835  -0.39648  -0.38459  -0.34802  -0.29515
  Beta  occ. eigenvalues --   -0.29107  -0.27494  -0.26462
  Beta virt. eigenvalues --   -0.11696  -0.06450   0.03290   0.04909   0.05688
  Beta virt. eigenvalues --    0.07672   0.07944   0.09678   0.10288   0.11550
  Beta virt. eigenvalues --    0.12751   0.14189   0.19738   0.20702   0.23025

 Mulliken atomic charges:
              1
     1  C    0.085614
     2  C   -0.301525
     3  H    0.098887
     4  C    0.062828
     5  H    0.157215
     6  H    0.120878
     7  O   -0.393487
     8  H    0.253870
     9  O   -0.328342
    10  O   -0.326999
    11  H    0.249649
    12  C   -0.140217
    13  H    0.135224
    14  H    0.125840
    15  H    0.091966
    16  H    0.108600
 Sum of Mulliken charges=   0.00000

 Dipole moment (field-independent basis, Debye):
    X=     0.3268    Y=    -3.1414    Z=     2.2303  Tot=     3.8664
 Quadrupole moment (field-independent basis, Debye-Ang):
   XX=   -40.0668   YY=   -45.3111   ZZ=   -40.8960
   XY=     0.7303   XZ=     6.6195   YZ=    -5.2289

  Exact polarizability:  53.319  -5.567  64.171  15.476 -16.284 130.798
 Approx polarizability:  79.635 -14.237  94.440  26.417 -42.183 230.295

 ******    1 imaginary frequencies (negative Signs) ******

                     1                      2                      3
                     A                      A                      A
 Frequencies --  -775.8844                61.5479                90.7553
 Red. masses --    11.4883                 4.9207                 2.9043
 Frc consts  --     4.0748                 0.0110                 0.0141
 IR Inten    --   240.0485                 1.7825                 5.0754

                     4                      5                      6
                     A                      A                      A
 Frequencies --   140.2970               164.1541               199.7763
 Red. masses --     4.0635                 2.2655                 1.1947
 Frc consts  --     0.0471                 0.0360                 0.0281
 IR Inten    --     1.6480                 2.9317                95.7742

                     7                      8                      9
                     A                      A                      A
 Frequencies --   249.8149               266.2536               337.5869
 Red. masses --     4.4643                 4.4122                 4.4902
 Frc consts  --     0.1641                 0.1843                 0.3015
 IR Inten    --     1.2533                 0.1498                35.8316

                    10                     11                     12
                     A                      A                      A
 Frequencies --   348.2326               398.3933               455.1325
 Red. masses --     3.0728                 2.0914                 1.3730
 Frc consts  --     0.2195                 0.1956                 0.1676
 IR Inten    --    23.2045                 8.1984                 2.4084

                    13                     14                     15
                     A                      A                      A
 Frequencies --   505.1622               593.2849               818.9492
 Red. masses --     3.4445                 1.0996                 1.4113
 Frc consts  --     0.5179                 0.2280                 0.5577
 IR Inten    --     2.3620               143.1446                85.5754

                    16                     17                     18
                     A                      A                      A
 Frequencies --   855.9708               872.1070               883.9628
 Red. masses --     1.9743                 1.1366                 1.1198
 Frc consts  --     0.8523                 0.5093                 0.5156
 IR Inten    --    11.3862                38.9125                42.2395

                    19                     20                     21
                     A                      A                      A
 Frequencies --   963.0643              1052.3549              1096.4718
 Red. masses --     1.3475                 1.3921                 4.1411
 Frc consts  --     0.7363                 0.9083                 2.9333
 IR Inten    --     7.1183                 2.7944                76.4837

                    22                     23                     24
                     A                      A                      A
 Frequencies --  1129.5273              1179.1813              1231.8105
 Red. masses --     2.1908                 1.4100                 1.7049
 Frc consts  --     1.6469                 1.1551                 1.5242
 IR Inten    --     9.4283                 1.2230                 1.4581

                    25                     26                     27
                     A                      A                      A
 Frequencies --  1238.7159              1251.0557              1311.9619
 Red. masses --     1.2193                 1.1223                 2.2523
 Frc consts  --     1.1024                 1.0349                 2.2841
 IR Inten    --     8.5165                26.7336                17.1778

                    28                     29                     30
                     A                      A                      A
 Frequencies --  1347.8296              1416.2650              1464.2006
 Red. masses --     1.3393                 1.3856                 1.2152
 Frc consts  --     1.4335                 1.6374                 1.5349
 IR Inten    --     2.3451                 0.9393                83.8214

                    31                     32                     33
                     A                      A                      A
 Frequencies --  1497.0064              1511.2099              1538.9404
 Red. masses --     1.1926                 1.2538                 1.1510
 Frc consts  --     1.5747                 1.6871                 1.6061
 IR Inten    --    14.5232                 2.3139                 1.5083

                    34                     35                     36
                     A                      A                      A
 Frequencies --  2955.0730              2994.1961              3060.9326
 Red. masses --     1.0721                 1.0462                 1.0911
 Frc consts  --     5.5160                 5.5261                 6.0230
 IR Inten    --    54.7090                28.7072                25.4314

                    37                     38                     39
                     A                      A                      A
 Frequencies --  3066.0607              3121.6685              3129.8065
 Red. masses --     1.1179                 1.0876                 1.0532
 Frc consts  --     6.1919                 6.2447                 6.0786
 IR Inten    --    47.5348                 6.1097                 2.0215

                    40                     41                     42
                     A                      A                      A
 Frequencies --  3227.8240              3688.0061              3777.8387
 Red. masses --     1.1167                 1.0657                 1.0678
 Frc consts  --     6.8550                 8.5401                 8.9788
 IR Inten    --     6.0975                69.8172                69.9019

 - Thermochemistry -
 -------------------
 Temperature   298.150 Kelvin.  Pressure   1.00000 Atm.
 Atom  1 has atomic number  6 and mass  12.00000

 Molecular mass:   105.05517 amu.
 Principal axes and moments of inertia in atomic units:
                           1         2         3
     EIGENVALUES --   516.451551113.340331535.07235
           X            0.10630  -0.18956   0.97610
           Y            0.03771   0.98172   0.18654
           Z            0.99362  -0.01698  -0.11150
 This molecule is an asymmetric top.
 Rotational symmetry number  1.
 Warning -- assumption of classical behavior for rotation
           may cause significant error
 Rotational temperatures (Kelvin)      0.16771     0.07780     0.05642
 Rotational constants (GHZ):           3.49450     1.62101     1.17567
    1 imaginary frequencies ignored.
 Zero-point vibrational energy     331918.2 (Joules/Mol)
                                   79.33034 (Kcal/Mol)
 Warning -- explicit consideration of  13 degrees of freedom as
           vibrations may cause significant error
 Vibrational temperatures:     88.55   130.58   201.86   236.18   287.43
          (Kelvin)            359.43   383.08   485.71   501.03   573.20
                              654.83   726.81   853.60  1178.28  1231.55
                             1254.77  1271.82  1385.63  1514.10  1577.58
                             1625.14  1696.58  1772.30  1782.23  1799.99
                             1887.62  1939.22  2037.69  2106.66  2153.86
                             2174.29  2214.19  4251.69  4307.98  4403.99
                             4411.37  4491.38  4503.09  4644.11  5306.21
                             5435.46

 Zero-point correction=                           0.126421 (Hartree/Particle)
 Thermal correction to Energy=                    0.135783
 Thermal correction to Enthalpy=                  0.136727
 Thermal correction to Gibbs Free Energy=         0.091669
 Sum of electronic and zero-point Energies=           -383.292222
 Sum of electronic and thermal Energies=              -383.282860
 Sum of electronic and thermal Enthalpies=            -383.281916
 Sum of electronic and thermal Free Energies=         -383.326974

                     E (Thermal)             CV                S
                      KCal/Mol        Cal/Mol-Kelvin    Cal/Mol-Kelvin
 Total                   85.205             32.267             94.833
 Electronic               0.000              0.000              1.377
 Translational            0.889              2.981             39.865
 Rotational               0.889              2.981             28.270
 Vibrational             83.427             26.305             25.321
 Vibration  1             0.597              1.973              4.407
 Vibration  2             0.602              1.956              3.644
 Vibration  3             0.615              1.913              2.800
 Vibration  4             0.623              1.886              2.501
 Vibration  5             0.638              1.840              2.135
 Vibration  6             0.663              1.763              1.732
 Vibration  7             0.672              1.735              1.620
 Vibration  8             0.718              1.600              1.224
 Vibration  9             0.726              1.579              1.174
 Vibration 10             0.765              1.474              0.969
 Vibration 11             0.813              1.350              0.780
 Vibration 12             0.860              1.239              0.645
 Vibration 13             0.951              1.046              0.461

 Optimization completed.
    -- Stationary point found.
 Normal termination of Gaussian 03 at Tue Aug  6 02:30:05 2019.
