 Gaussian 03, Revision D.01,
 Gaussian 03:  AM64L-G03RevD.01 13-Oct-2005

 -------------------------------------
 # freq nosymm b3lyp/cbsb7 iop(7/33=1)
 -------------------------------------

 -------------------
 Title Card Required
 -------------------
 Symbolic Z-matrix:
 Charge =  0 Multiplicity = 2

                          Input orientation:
 ---------------------------------------------------------------------
 Center     Atomic     Atomic              Coordinates (Angstroms)
 Number     Number      Type              X           Y           Z
 ---------------------------------------------------------------------
    1          8             0       -1.840354    0.629173    0.362509
    2          8             0       -1.487450   -0.143592   -0.775344
    3          6             0       -0.243315   -0.777007   -0.475787
    4          1             0       -0.084648   -1.469606   -1.305898
    5          8             0       -0.300496   -1.514381    0.704050
    6          1             0       -0.856236   -1.003069    1.309685
    7          6             0        0.861725    0.329582   -0.476243
    8          1             0        0.869390    0.723570   -1.497121
    9          6             0        2.233479   -0.298118   -0.163698
   10          1             0        3.020780    0.457955   -0.193522
   11          1             0        2.223549   -0.757683    0.826002
   12          1             0        2.479466   -1.073656   -0.895089
   13          6             0        0.500402    1.443549    0.472886
   14          1             0        0.654374    2.463327    0.128388
   15          1             0       -0.888950    1.284712    0.482591
   16          1             0        0.751369    1.289334    1.521476
 ---------------------------------------------------------------------

 SCF Done:  E(UB+HF-LYP) =  -383.454196253     A.U. after   18 cycles

 Alpha  occ. eigenvalues --  -19.19553 -19.18751 -19.13223 -10.28718 -10.20066
 Alpha  occ. eigenvalues --  -10.19963 -10.17695  -1.15282  -1.04418  -0.90116
 Alpha  occ. eigenvalues --   -0.82381  -0.71002  -0.67552  -0.59929  -0.56450
 Alpha  occ. eigenvalues --   -0.52159  -0.49510  -0.48006  -0.45941  -0.42342
 Alpha  occ. eigenvalues --   -0.41670  -0.39708  -0.39047  -0.38097  -0.36071
 Alpha  occ. eigenvalues --   -0.35093  -0.30490  -0.28317  -0.23812
 Alpha virt. eigenvalues --    0.01784   0.03562   0.05495   0.07426   0.08287
 Alpha virt. eigenvalues --    0.09293   0.11829   0.12251   0.12471   0.16262
 Alpha virt. eigenvalues --    0.17594   0.18766   0.20093   0.22520   0.25054

  Beta  occ. eigenvalues --  -19.19338 -19.17656 -19.13203 -10.28656 -10.20070
  Beta  occ. eigenvalues --  -10.19046 -10.17598  -1.14260  -1.04146  -0.88486
  Beta  occ. eigenvalues --   -0.81559  -0.69776  -0.66754  -0.59306  -0.55497
  Beta  occ. eigenvalues --   -0.51765  -0.48520  -0.46860  -0.45344  -0.41643
  Beta  occ. eigenvalues --   -0.41227  -0.39143  -0.37965  -0.37245  -0.35806
  Beta  occ. eigenvalues --   -0.33549  -0.29458  -0.27311
  Beta virt. eigenvalues --   -0.12664   0.02416   0.03819   0.05742   0.07629
  Beta virt. eigenvalues --    0.08444   0.09489   0.11912   0.12476   0.12611
  Beta virt. eigenvalues --    0.17049   0.18086   0.19192   0.20295   0.22827

 Mulliken atomic charges:
              1
     1  O   -0.247368
     2  O   -0.199310
     3  C    0.209544
     4  H    0.136652
     5  O   -0.366541
     6  H    0.246730
     7  C   -0.193461
     8  H    0.132542
     9  C   -0.260449
    10  H    0.113755
    11  H    0.123190
    12  H    0.109985
    13  C   -0.324428
    14  H    0.142979
    15  H    0.241758
    16  H    0.134420
 Sum of Mulliken charges=   0.00000

 Dipole moment (field-independent basis, Debye):
    X=     2.5574    Y=     1.1080    Z=     0.0730  Tot=     2.7880
 Quadrupole moment (field-independent basis, Debye-Ang):
   XX=   -47.7981   YY=   -44.1480   ZZ=   -40.8081
   XY=     1.4859   XZ=    -2.1808   YZ=     1.9771

  Exact polarizability:  69.501   2.468  61.969  -0.724   5.884  53.981
 Approx polarizability:  99.440   3.797  89.055  -0.123  11.116  84.039

 ******    1 imaginary frequencies (negative Signs) ******

                     1                      2                      3
                     A                      A                      A
 Frequencies -- -1614.2636               106.7029               235.3638
 Red. masses --     1.1127                 3.1287                 1.8984
 Frc consts  --     1.7084                 0.0210                 0.0620
 IR Inten    --   248.6955                 0.3279                 5.5095

                     4                      5                      6
                     A                      A                      A
 Frequencies --   242.7447               255.9426               324.2399
 Red. masses --     1.5394                 3.8536                 2.4389
 Frc consts  --     0.0534                 0.1487                 0.1511
 IR Inten    --     3.1832                 1.1763                 1.0807

                     7                      8                      9
                     A                      A                      A
 Frequencies --   400.0967               421.9366               478.5943
 Red. masses --     3.1905                 1.1592                 1.7458
 Frc consts  --     0.3009                 0.1216                 0.2356
 IR Inten    --     6.0431                50.8294                 5.6474

                    10                     11                     12
                     A                      A                      A
 Frequencies --   482.1419               588.3826               603.6864
 Red. masses --     3.7517                 3.1654                 2.7691
 Frc consts  --     0.5138                 0.6456                 0.5946
 IR Inten    --    20.1933                 7.3611                 7.0848

                    13                     14                     15
                     A                      A                      A
 Frequencies --   725.5576               836.7373               893.6243
 Red. masses --     3.5852                 3.3881                 4.5376
 Frc consts  --     1.1120                 1.3976                 2.1349
 IR Inten    --    13.6954                 8.8295                52.8703

                    16                     17                     18
                     A                      A                      A
 Frequencies --   930.2163               952.9433               979.0494
 Red. masses --     1.9903                 1.4227                 4.6874
 Frc consts  --     1.0147                 0.7612                 2.6473
 IR Inten    --     9.9641                 1.3048                 5.7693

                    19                     20                     21
                     A                      A                      A
 Frequencies --   989.5059              1045.8188              1101.7233
 Red. masses --     1.6031                 1.9108                 2.4034
 Frc consts  --     0.9248                 1.2313                 1.7188
 IR Inten    --     7.6459                70.7763                31.5305

                    22                     23                     24
                     A                      A                      A
 Frequencies --  1135.2134              1154.3282              1179.7249
 Red. masses --     2.1083                 1.5338                 1.3519
 Frc consts  --     1.6008                 1.2041                 1.1085
 IR Inten    --    56.7992                60.6061                40.9865

                    25                     26                     27
                     A                      A                      A
 Frequencies --  1286.2763              1309.3438              1336.0468
 Red. masses --     1.3114                 1.2116                 1.3772
 Frc consts  --     1.2784                 1.2238                 1.4485
 IR Inten    --     4.7485                 3.7601                 1.5126

                    28                     29                     30
                     A                      A                      A
 Frequencies --  1374.5097              1402.0510              1422.1744
 Red. masses --     1.3930                 1.1975                 1.2034
 Frc consts  --     1.5506                 1.3869                 1.4341
 IR Inten    --     2.0185                 4.8147                62.0511

                    31                     32                     33
                     A                      A                      A
 Frequencies --  1462.2013              1496.9600              1499.8931
 Red. masses --     1.1570                 1.0463                 1.0498
 Frc consts  --     1.4574                 1.3815                 1.3915
 IR Inten    --     3.4656                 5.9697                 9.5465

                    34                     35                     36
                     A                      A                      A
 Frequencies --  1559.8898              3031.5814              3045.8018
 Red. masses --     1.0581                 1.0363                 1.0843
 Frc consts  --     1.5170                 5.6115                 5.9266
 IR Inten    --    28.6007                26.2931                10.8486

                    37                     38                     39
                     A                      A                      A
 Frequencies --  3082.4702              3087.6761              3096.4687
 Red. masses --     1.0876                 1.0544                 1.0995
 Frc consts  --     6.0887                 5.9227                 6.2113
 IR Inten    --    23.0434                 4.1270                28.7058

                    40                     41                     42
                     A                      A                      A
 Frequencies --  3118.3620              3176.6917              3751.4150
 Red. masses --     1.1026                 1.1129                 1.0641
 Frc consts  --     6.3170                 6.6169                 8.8231
 IR Inten    --    19.2407                 9.5428                55.6116

 - Thermochemistry -
 -------------------
 Temperature   298.150 Kelvin.  Pressure   1.00000 Atm.
 Atom  1 has atomic number  8 and mass  15.99491

 Molecular mass:   105.05517 amu.
 Principal axes and moments of inertia in atomic units:
                           1         2         3
     EIGENVALUES --   465.84893 800.27836 997.02872
           X            0.99950   0.02219   0.02258
           Y           -0.02128   0.99898  -0.03978
           Z           -0.02344   0.03928   0.99895
 This molecule is an asymmetric top.
 Rotational symmetry number  1.
 Warning -- assumption of classical behavior for rotation
           may cause significant error
 Rotational temperatures (Kelvin)      0.18593     0.10823     0.08687
 Rotational constants (GHZ):           3.87409     2.25514     1.81012
    1 imaginary frequencies ignored.
 Zero-point vibrational energy     332586.3 (Joules/Mol)
                                   79.49003 (Kcal/Mol)
 Warning -- explicit consideration of  11 degrees of freedom as
           vibrations may cause significant error
 Vibrational temperatures:    153.52   338.64   349.26   368.24   466.51
          (Kelvin)            575.65   607.07   688.59   693.69   846.55
                              868.57  1043.91  1203.88  1285.72  1338.37
                             1371.07  1408.63  1423.68  1504.70  1585.13
                             1633.32  1660.82  1697.36  1850.66  1883.85
                             1922.27  1977.61  2017.24  2046.19  2103.78
                             2153.79  2158.01  2244.33  4361.76  4382.22
                             4434.98  4442.47  4455.12  4486.62  4570.55
                             5397.44

 Zero-point correction=                           0.126675 (Hartree/Particle)
 Thermal correction to Energy=                    0.134090
 Thermal correction to Enthalpy=                  0.135034
 Thermal correction to Gibbs Free Energy=         0.094999
 Sum of electronic and zero-point Energies=           -383.327521
 Sum of electronic and thermal Energies=              -383.320106
 Sum of electronic and thermal Enthalpies=            -383.319162
 Sum of electronic and thermal Free Energies=         -383.359198

                     E (Thermal)             CV                S
                      KCal/Mol        Cal/Mol-Kelvin    Cal/Mol-Kelvin
 Total                   84.143             28.331             84.262
 Electronic               0.000              0.000              1.377
 Translational            0.889              2.981             39.865
 Rotational               0.889              2.981             27.410
 Vibrational             82.365             22.369             15.610
 Vibration  1             0.606              1.944              3.328
 Vibration  2             0.655              1.787              1.838
 Vibration  3             0.659              1.775              1.783
 Vibration  4             0.666              1.753              1.689
 Vibration  5             0.709              1.627              1.289
 Vibration  6             0.766              1.470              0.962
 Vibration  7             0.784              1.423              0.885
 Vibration  8             0.835              1.298              0.714
 Vibration  9             0.838              1.290              0.704
 Vibration 10             0.946              1.057              0.470
 Vibration 11             0.962              1.024              0.443

 Optimization completed.
    -- Stationary point found.
 Normal termination of Gaussian 03 at Thu Jul 10 13:48:41 2014.
