 Gaussian 03, Revision D.01,
 Gaussian 03:  AM64L-G03RevD.01 13-Oct-2005

 -------------------------------------
 # freq nosymm b3lyp/cbsb7 iop(7/33=1)
 -------------------------------------

 -------------------
 Title Card Required
 -------------------
 Symbolic Z-matrix:
 Charge =  0 Multiplicity = 1

                          Input orientation:
 ---------------------------------------------------------------------
 Center     Atomic     Atomic              Coordinates (Angstroms)
 Number     Number      Type              X           Y           Z
 ---------------------------------------------------------------------
    1          8             0       -3.314741    2.915141   -0.769014
    2          1             0       -3.776114    2.158048   -1.150055
    3          6             0       -2.164669    2.440347   -0.159844
    4          1             0       -1.733264    3.301375    0.362798
    5          8             0       -2.404576    1.335651    0.738192
    6          6             0       -1.308804    0.577250    0.164317
    7          1             0       -1.615367   -0.437005   -0.104307
    8          1             0       -0.452430    0.530610    0.846281
    9          6             0       -1.149746    1.602022   -0.975599
   10          1             0       -1.620423    1.250296   -1.899048
   11          6             0        0.219457    2.194510   -1.264780
   12          1             0        0.140793    3.040613   -1.953487
   13          1             0        0.696130    2.551100   -0.346757
   14          1             0        0.885160    1.456080   -1.720702
 ---------------------------------------------------------------------

 SCF Done:  E(RB+HF-LYP) =  -307.739938196     A.U. after   13 cycles

 Alpha  occ. eigenvalues --  -19.12769 -19.11612 -10.26884 -10.22097 -10.18636
 Alpha  occ. eigenvalues --  -10.17337  -1.07381  -1.01248  -0.78813  -0.68951
 Alpha  occ. eigenvalues --   -0.67248  -0.59103  -0.52336  -0.48137  -0.47499
 Alpha  occ. eigenvalues --   -0.44335  -0.42580  -0.41475  -0.39405  -0.36838
 Alpha  occ. eigenvalues --   -0.34066  -0.31535  -0.29176  -0.26133
 Alpha virt. eigenvalues --    0.03601   0.04536   0.06782   0.07318   0.09562
 Alpha virt. eigenvalues --    0.10787   0.11037   0.12036   0.12719   0.16537
 Alpha virt. eigenvalues --    0.20726   0.21407   0.24275   0.29729   0.30355

 Mulliken atomic charges:
              1
     1  O   -0.354410
     2  H    0.226410
     3  C    0.281726
     4  H    0.100079
     5  O   -0.369668
     6  C    0.063987
     7  H    0.098709
     8  H    0.096977
     9  C   -0.333672
    10  H    0.116547
    11  C   -0.262263
    12  H    0.117788
    13  H    0.104884
    14  H    0.112908
 Sum of Mulliken charges=   0.00000

 Dipole moment (field-independent basis, Debye):
    X=     1.6189    Y=    -1.1899    Z=    -1.6040  Tot=     2.5709
 Quadrupole moment (field-independent basis, Debye-Ang):
   XX=   -42.2444   YY=   -41.8503   ZZ=   -37.0349
   XY=     7.0619   XZ=     5.1145   YZ=    -0.5803

  Exact polarizability:  53.612  -1.336  51.563   0.582  -1.996  46.366
 Approx polarizability:  69.941  -2.007  71.292   2.681  -1.265  65.615

                     1                      2                      3
                     A                      A                      A
 Frequencies --   104.0336               212.6323               265.4426
 Red. masses --     3.0947                 1.1315                 2.3449
 Frc consts  --     0.0197                 0.0301                 0.0973
 IR Inten    --     1.3014                 0.1232                 3.3454

                     4                      5                      6
                     A                      A                      A
 Frequencies --   307.6697               365.3513               462.7712
 Red. masses --     1.8954                 1.5250                 2.5203
 Frc consts  --     0.1057                 0.1199                 0.3180
 IR Inten    --    19.1272                60.2613                35.0621

                     7                      8                      9
                     A                      A                      A
 Frequencies --   560.7503               708.6631               854.6436
 Red. masses --     3.4227                 4.3339                 1.9670
 Frc consts  --     0.6341                 1.2824                 0.8465
 IR Inten    --    10.7927                 3.9373                19.7441

                    10                     11                     12
                     A                      A                      A
 Frequencies --   890.3589               932.0401               960.4519
 Red. masses --     2.2673                 1.1996                 5.0012
 Frc consts  --     1.0590                 0.6140                 2.7182
 IR Inten    --     8.9523                 2.8386                84.5902

                    13                     14                     15
                     A                      A                      A
 Frequencies --   991.3687              1093.7220              1124.7722
 Red. masses --     5.7029                 1.6200                 2.4419
 Frc consts  --     3.3023                 1.1417                 1.8201
 IR Inten    --    96.9557                34.3265                24.0459

                    16                     17                     18
                     A                      A                      A
 Frequencies --  1143.7029              1166.1735              1180.7331
 Red. masses --     1.9344                 2.2118                 1.3664
 Frc consts  --     1.4908                 1.7723                 1.1223
 IR Inten    --    36.4963               123.9765                 5.3290

                    19                     20                     21
                     A                      A                      A
 Frequencies --  1251.4050              1277.6183              1321.5052
 Red. masses --     1.5088                 1.2370                 1.4387
 Frc consts  --     1.3921                 1.1896                 1.4803
 IR Inten    --    15.5004                 5.6588                 3.2841

                    22                     23                     24
                     A                      A                      A
 Frequencies --  1340.2607              1399.3337              1416.1704
 Red. masses --     1.3572                 1.6132                 1.2831
 Frc consts  --     1.4364                 1.8611                 1.5162
 IR Inten    --     4.9697                 0.4441                 3.8875

                    25                     26                     27
                     A                      A                      A
 Frequencies --  1455.0568              1498.2365              1499.8973
 Red. masses --     1.2185                 1.0532                 1.0471
 Frc consts  --     1.5200                 1.3929                 1.3879
 IR Inten    --    78.1710                11.6696                 9.8284

                    28                     29                     30
                     A                      A                      A
 Frequencies --  1534.0129              3015.5634              3022.1922
 Red. masses --     1.1100                 1.0576                 1.0391
 Frc consts  --     1.5390                 5.6664                 5.5915
 IR Inten    --     4.0645                59.9883                23.8549

                    31                     32                     33
                     A                      A                      A
 Frequencies --  3035.0757              3042.5838              3070.4609
 Red. masses --     1.0855                 1.0855                 1.1071
 Frc consts  --     5.8915                 5.9205                 6.1497
 IR Inten    --    21.6645                36.1463                46.5949

                    34                     35                     36
                     A                      A                      A
 Frequencies --  3086.5433              3088.4262              3794.8877
 Red. masses --     1.1015                 1.1017                 1.0650
 Frc consts  --     6.1830                 6.1914                 9.0365
 IR Inten    --    39.2824                40.1741                23.1797

 - Thermochemistry -
 -------------------
 Temperature   298.150 Kelvin.  Pressure   1.00000 Atm.
 Atom  1 has atomic number  8 and mass  15.99491

 Molecular mass:    88.05243 amu.
 Principal axes and moments of inertia in atomic units:
                           1         2         3
     EIGENVALUES --   344.00350 541.55339 779.67288
           X            0.94479   0.00698   0.32761
           Y           -0.21463   0.76864   0.60260
           Z           -0.24761  -0.63964   0.72770
 This molecule is an asymmetric top.
 Rotational symmetry number  1.
 Rotational temperatures (Kelvin)      0.25178     0.15994     0.11109
 Rotational constants (GHZ):           5.24629     3.33253     2.31474
 Zero-point vibrational energy     313867.3 (Joules/Mol)
                                   75.01608 (Kcal/Mol)
 Warning -- explicit consideration of   7 degrees of freedom as
           vibrations may cause significant error
 Vibrational temperatures:    149.68   305.93   381.91   442.67   525.66
          (Kelvin)            665.82   806.79  1019.61  1229.64  1281.03
                             1341.00  1381.87  1426.36  1573.62  1618.29
                             1645.53  1677.86  1698.81  1800.49  1838.21
                             1901.35  1928.33  2013.33  2037.55  2093.50
                             2155.63  2158.02  2207.10  4338.72  4348.26
                             4366.79  4377.59  4417.70  4440.84  4443.55
                             5459.99

 Zero-point correction=                           0.119546 (Hartree/Particle)
 Thermal correction to Energy=                    0.125848
 Thermal correction to Enthalpy=                  0.126792
 Thermal correction to Gibbs Free Energy=         0.089736
 Sum of electronic and zero-point Energies=           -307.620392
 Sum of electronic and thermal Energies=              -307.614091
 Sum of electronic and thermal Enthalpies=            -307.613146
 Sum of electronic and thermal Free Energies=         -307.650202

                     E (Thermal)             CV                S
                      KCal/Mol        Cal/Mol-Kelvin    Cal/Mol-Kelvin
 Total                   78.971             22.623             77.991
 Electronic               0.000              0.000              0.000
 Translational            0.889              2.981             39.339
 Rotational               0.889              2.981             26.477
 Vibrational             77.193             16.661             12.175
 Vibration  1             0.605              1.946              3.377
 Vibration  2             0.644              1.822              2.021
 Vibration  3             0.671              1.736              1.626
 Vibration  4             0.698              1.659              1.375
 Vibration  5             0.739              1.544              1.099
 Vibration  6             0.820              1.333              0.758
 Vibration  7             0.916              1.116              0.522

 Optimization completed.
    -- Stationary point found.
 Normal termination of Gaussian 03 at Tue Jul 15 16:54:20 2014.
