 Gaussian 03, Revision D.01,
 Gaussian 03:  AM64L-G03RevD.01 13-Oct-2005

 -------------------------------------
 # freq nosymm b3lyp/cbsb7 iop(7/33=1)
 -------------------------------------

 -------------------
 Title Card Required
 -------------------
 Symbolic Z-matrix:
 Charge =  0 Multiplicity = 2

                          Input orientation:
 ---------------------------------------------------------------------
 Center     Atomic     Atomic              Coordinates (Angstroms)
 Number     Number      Type              X           Y           Z
 ---------------------------------------------------------------------
    1          8             0        2.358082   -0.770210    0.605460
    2          1             0        2.512410    0.126083    0.942440
    3          8             0        0.923974   -0.878698    0.780600
    4          6             0        0.329842   -0.233991   -0.319451
    5          1             0        0.707565   -0.671160   -1.247400
    6          8             0        0.494450    1.177694   -0.294206
    7          1             0       -0.775731    1.174762   -0.047050
    8          6             0       -1.168192   -0.107649   -0.134501
    9          6             0       -1.777791   -0.547991    1.176834
   10          1             0       -1.863729   -1.641910    1.196381
   11          1             0       -1.163260   -0.256025    2.027743
   12          1             0       -2.778873   -0.127336    1.294887
   13          6             0       -1.996032   -0.271056   -1.387139
   14          1             0       -1.517514    0.204142   -2.245966
   15          1             0       -2.118122   -1.337316   -1.619182
   16          1             0       -2.992659    0.158812   -1.263202
 ---------------------------------------------------------------------

 SCF Done:  E(UB+HF-LYP) =  -383.423942318     A.U. after   18 cycles

 Alpha  occ. eigenvalues --  -19.18148 -19.17241 -19.14104 -10.27274 -10.22302
 Alpha  occ. eigenvalues --  -10.18606 -10.18139  -1.13479  -1.03193  -0.91250
 Alpha  occ. eigenvalues --   -0.81649  -0.71629  -0.66284  -0.60117  -0.55027
 Alpha  occ. eigenvalues --   -0.49684  -0.47803  -0.46972  -0.45209  -0.42315
 Alpha  occ. eigenvalues --   -0.42135  -0.41358  -0.40504  -0.37795  -0.34593
 Alpha  occ. eigenvalues --   -0.31647  -0.29513  -0.28920  -0.24594
 Alpha virt. eigenvalues --    0.00851   0.03258   0.06286   0.06847   0.08134
 Alpha virt. eigenvalues --    0.09510   0.09811   0.11262   0.12963   0.13501
 Alpha virt. eigenvalues --    0.15542   0.17064   0.20525   0.22926   0.25112

  Beta  occ. eigenvalues --  -19.18157 -19.17236 -19.12513 -10.27337 -10.21474
  Beta  occ. eigenvalues --  -10.18608 -10.18123  -1.13375  -1.00325  -0.90790
  Beta  occ. eigenvalues --   -0.80416  -0.71416  -0.65470  -0.58436  -0.54970
  Beta  occ. eigenvalues --   -0.48521  -0.46752  -0.46333  -0.44711  -0.42123
  Beta  occ. eigenvalues --   -0.41278  -0.40717  -0.39184  -0.37490  -0.33011
  Beta  occ. eigenvalues --   -0.30918  -0.28979  -0.28439
  Beta virt. eigenvalues --   -0.11249   0.00914   0.03521   0.06427   0.06994
  Beta virt. eigenvalues --    0.08399   0.09702   0.10023   0.11864   0.13129
  Beta virt. eigenvalues --    0.13583   0.16062   0.17637   0.20867   0.23413

 Mulliken atomic charges:
              1
     1  O   -0.258627
     2  H    0.268261
     3  O   -0.245364
     4  C    0.342804
     5  H    0.117994
     6  O   -0.361053
     7  H    0.187050
     8  C   -0.315651
     9  C   -0.227573
    10  H    0.124858
    11  H    0.129884
    12  H    0.114958
    13  C   -0.247142
    14  H    0.124844
    15  H    0.124812
    16  H    0.119945
 Sum of Mulliken charges=   0.00000

 Dipole moment (field-independent basis, Debye):
    X=    -2.3205    Y=     0.2425    Z=    -0.3948  Tot=     2.3663
 Quadrupole moment (field-independent basis, Debye-Ang):
   XX=   -39.9617   YY=   -46.7473   ZZ=   -41.8018
   XY=     3.4797   XZ=     1.0109   YZ=     2.8972

  Exact polarizability:  78.796   4.837  53.411   2.686  -1.188  55.834
 Approx polarizability: 107.051  10.790  84.752  -0.105  -1.864  72.902

 ******    1 imaginary frequencies (negative Signs) ******

                     1                      2                      3
                     A                      A                      A
 Frequencies -- -1891.7909                91.3373               127.0417
 Red. masses --     1.0850                 3.8363                 5.0194
 Frc consts  --     2.2878                 0.0189                 0.0477
 IR Inten    --    99.9397                 7.2838                 6.7144

                     4                      5                      6
                     A                      A                      A
 Frequencies --   176.1974               207.9262               227.0974
 Red. masses --     2.4485                 1.1592                 1.1332
 Frc consts  --     0.0448                 0.0295                 0.0344
 IR Inten    --     2.0362                 0.8705                 1.2754

                     7                      8                      9
                     A                      A                      A
 Frequencies --   306.6674               323.8600               337.1686
 Red. masses --     1.8659                 2.3752                 2.4660
 Frc consts  --     0.1034                 0.1468                 0.1652
 IR Inten    --    38.9306                 5.3788                31.9936

                    10                     11                     12
                     A                      A                      A
 Frequencies --   372.7094               507.6151               577.5945
 Red. masses --     2.1654                 3.2705                 5.7278
 Frc consts  --     0.1772                 0.4965                 1.1259
 IR Inten    --    52.2719                 6.2840                 4.3060

                    13                     14                     15
                     A                      A                      A
 Frequencies --   653.3908               857.2718               919.4424
 Red. masses --     5.6447                 2.6165                 2.0945
 Frc consts  --     1.4198                 1.1329                 1.0432
 IR Inten    --     9.9092                12.5825                10.4007

                    16                     17                     18
                     A                      A                      A
 Frequencies --   937.4841               958.1010               974.6519
 Red. masses --     2.6673                 2.7117                 1.4688
 Frc consts  --     1.3812                 1.4666                 0.8221
 IR Inten    --     2.1718                43.2405                 1.1384

                    19                     20                     21
                     A                      A                      A
 Frequencies --   996.4134              1069.0661              1072.5534
 Red. masses --     2.4506                 4.6036                 1.2254
 Frc consts  --     1.4335                 3.0999                 0.8305
 IR Inten    --    44.2667                53.3188                32.3500

                    22                     23                     24
                     A                      A                      A
 Frequencies --  1121.4140              1217.6338              1268.0081
 Red. masses --     1.6636                 2.0580                 2.4541
 Frc consts  --     1.2326                 1.7977                 2.3248
 IR Inten    --    35.5668                 6.9708                 2.0686

                    25                     26                     27
                     A                      A                      A
 Frequencies --  1317.4367              1377.4024              1393.7877
 Red. masses --     2.0099                 1.2699                 1.1124
 Frc consts  --     2.0553                 1.4196                 1.2732
 IR Inten    --     8.0164                 9.3079                69.7750

                    28                     29                     30
                     A                      A                      A
 Frequencies --  1399.9422              1417.4875              1475.8875
 Red. masses --     1.2510                 1.2188                 1.0507
 Frc consts  --     1.4445                 1.4429                 1.3485
 IR Inten    --     8.7348                 1.8547                 5.6901

                    31                     32                     33
                     A                      A                      A
 Frequencies --  1480.3300              1494.4325              1500.2848
 Red. masses --     1.0506                 1.0659                 1.0493
 Frc consts  --     1.3565                 1.4025                 1.3915
 IR Inten    --     1.8902                 5.0004                18.0409

                    34                     35                     36
                     A                      A                      A
 Frequencies --  1913.1383              3002.5444              3010.3866
 Red. masses --     1.0573                 1.0469                 1.0479
 Frc consts  --     2.2800                 5.5605                 5.5951
 IR Inten    --     6.3167                10.8118                17.8357

                    37                     38                     39
                     A                      A                      A
 Frequencies --  3063.5606              3074.9937              3082.2061
 Red. masses --     1.0865                 1.0862                 1.0879
 Frc consts  --     6.0082                 6.0515                 6.0895
 IR Inten    --    36.4519                14.4708                22.0885

                    40                     41                     42
                     A                      A                      A
 Frequencies --  3109.1307              3130.1721              3728.7027
 Red. masses --     1.1026                 1.1000                 1.0684
 Frc consts  --     6.2799                 6.3500                 8.7518
 IR Inten    --    18.8904                10.9569                28.9141

 - Thermochemistry -
 -------------------
 Temperature   298.150 Kelvin.  Pressure   1.00000 Atm.
 Atom  1 has atomic number  8 and mass  15.99491

 Molecular mass:   105.05517 amu.
 Principal axes and moments of inertia in atomic units:
                           1         2         3
     EIGENVALUES --   408.504091045.727381207.07402
           X            0.96503  -0.24939  -0.08070
           Y           -0.07759  -0.56584   0.82085
           Z            0.25038   0.78589   0.56541
 This molecule is an asymmetric top.
 Rotational symmetry number  1.
 Rotational temperatures (Kelvin)      0.21203     0.08283     0.07176
 Rotational constants (GHZ):           4.41793     1.72582     1.49514
    1 imaginary frequencies ignored.
 Zero-point vibrational energy     330602.8 (Joules/Mol)
                                   79.01597 (Kcal/Mol)
 Warning -- explicit consideration of  11 degrees of freedom as
           vibrations may cause significant error
 Vibrational temperatures:    131.41   182.78   253.51   299.16   326.74
          (Kelvin)            441.23   465.96   485.11   536.25   730.34
                              831.03   940.08  1233.42  1322.87  1348.83
                             1378.49  1402.30  1433.61  1538.15  1543.16
                             1613.46  1751.90  1824.38  1895.50  1981.77
                             2005.35  2014.20  2039.45  2123.47  2129.86
                             2150.15  2158.57  2752.58  4319.99  4331.27
                             4407.78  4424.22  4434.60  4473.34  4503.61
                             5364.77

 Zero-point correction=                           0.125920 (Hartree/Particle)
 Thermal correction to Energy=                    0.134346
 Thermal correction to Enthalpy=                  0.135290
 Thermal correction to Gibbs Free Energy=         0.092750
 Sum of electronic and zero-point Energies=           -383.298022
 Sum of electronic and thermal Energies=              -383.289597
 Sum of electronic and thermal Enthalpies=            -383.288652
 Sum of electronic and thermal Free Energies=         -383.331193

                     E (Thermal)             CV                S
                      KCal/Mol        Cal/Mol-Kelvin    Cal/Mol-Kelvin
 Total                   84.303             29.824             89.533
 Electronic               0.000              0.000              1.377
 Translational            0.889              2.981             39.865
 Rotational               0.889              2.981             27.736
 Vibrational             82.526             23.862             20.555
 Vibration  1             0.602              1.955              3.631
 Vibration  2             0.611              1.926              2.990
 Vibration  3             0.628              1.872              2.368
 Vibration  4             0.641              1.829              2.062
 Vibration  5             0.651              1.800              1.902
 Vibration  6             0.697              1.661              1.380
 Vibration  7             0.708              1.628              1.291
 Vibration  8             0.718              1.601              1.226
 Vibration  9             0.744              1.528              1.069
 Vibration 10             0.863              1.233              0.639
 Vibration 11             0.934              1.080              0.490

 Optimization completed.
    -- Stationary point found.
 Normal termination of Gaussian 03 at Tue Jul  8 23:49:25 2014.
