 Gaussian 03, Revision D.01,
 Gaussian 03:  AM64L-G03RevD.01 13-Oct-2005

 -------------------------------------
 # freq nosymm b3lyp/cbsb7 iop(7/33=1)
 -------------------------------------

 -------------------
 Title Card Required
 -------------------
 Symbolic Z-matrix:
 Charge =  0 Multiplicity = 2

                          Input orientation:
 ---------------------------------------------------------------------
 Center     Atomic     Atomic              Coordinates (Angstroms)
 Number     Number      Type              X           Y           Z
 ---------------------------------------------------------------------
    1          6             0       -0.861043   -1.093226    0.007792
    2          1             0       -0.479626   -2.112008   -0.065994
    3          1             0       -0.642004   -0.711025    1.007811
    4          1             0       -1.947396   -1.125308   -0.116580
    5          6             0       -0.208315   -0.226355   -1.084701
    6          1             0        0.869495   -0.177571   -0.874874
    7          6             0       -0.738497    1.188889   -0.998284
    8          1             0       -0.482776    1.728599   -0.059187
    9          6             0       -0.409158   -0.812166   -2.493389
   10          1             0        0.068889   -0.190442   -3.269363
   11          1             0       -1.486742   -0.764949   -2.759997
   12          8             0       -0.054775   -2.119407   -2.627814
   13          8             0       -1.413939    1.718777   -1.845263
 ---------------------------------------------------------------------

 SCF Done:  E(UB+HF-LYP) =  -307.088011835     A.U. after   21 cycles

 Alpha  occ. eigenvalues --  -19.16481 -19.13431 -10.27334 -10.23621 -10.20179
 Alpha  occ. eigenvalues --  -10.18274  -1.06902  -1.03795  -0.81504  -0.69493
 Alpha  occ. eigenvalues --   -0.65306  -0.57086  -0.51595  -0.49355  -0.47751
 Alpha  occ. eigenvalues --   -0.44878  -0.43887  -0.41882  -0.39389  -0.39173
 Alpha  occ. eigenvalues --   -0.37329  -0.32847  -0.29738  -0.26743
 Alpha virt. eigenvalues --   -0.04252   0.03821   0.05713   0.07063   0.09001
 Alpha virt. eigenvalues --    0.10076   0.11799   0.12475   0.16951   0.18421
 Alpha virt. eigenvalues --    0.18529   0.25342   0.26356   0.29109   0.30373

  Beta  occ. eigenvalues --  -19.14171 -19.13417 -10.27336 -10.23672 -10.20168
  Beta  occ. eigenvalues --  -10.18274  -1.06868  -0.98893  -0.81126  -0.68920
  Beta  occ. eigenvalues --   -0.64502  -0.56560  -0.50796  -0.48503  -0.46885
  Beta  occ. eigenvalues --   -0.43138  -0.42570  -0.41050  -0.39100  -0.38806
  Beta  occ. eigenvalues --   -0.36613  -0.28409  -0.26178
  Beta virt. eigenvalues --   -0.14526  -0.04224   0.03862   0.05932   0.07102
  Beta virt. eigenvalues --    0.09125   0.10300   0.12011   0.12609   0.17432
  Beta virt. eigenvalues --    0.18572   0.18789   0.25609   0.26513   0.29308

 Mulliken atomic charges:
              1
     1  C   -0.290300
     2  H    0.139517
     3  H    0.115748
     4  H    0.115433
     5  C   -0.278250
     6  H    0.139312
     7  C    0.195478
     8  H    0.082992
     9  C    0.012998
    10  H    0.133205
    11  H    0.154144
    12  O   -0.240778
    13  O   -0.279501
 Sum of Mulliken charges=   0.00000

 Dipole moment (field-independent basis, Debye):
    X=     0.7380    Y=     0.2661    Z=     1.8332  Tot=     1.9940
 Quadrupole moment (field-independent basis, Debye-Ang):
   XX=   -36.9535   YY=   -44.7212   ZZ=   -40.8554
   XY=     4.2619   XZ=    -1.9992   YZ=    -0.8658

  Exact polarizability:  43.543  -4.040  55.828   1.207   0.797  55.087
 Approx polarizability:  65.614  -8.765  78.248   7.508  -3.043  72.408

                     1                      2                      3
                     A                      A                      A
 Frequencies --    65.0321               107.6369               204.0442
 Red. masses --     3.3253                 2.5984                 2.9406
 Frc consts  --     0.0083                 0.0177                 0.0721
 IR Inten    --    12.7855                 1.0149                10.5024

                     4                      5                      6
                     A                      A                      A
 Frequencies --   223.2011               289.1348               370.0973
 Red. masses --     1.3025                 2.7162                 2.2380
 Frc consts  --     0.0382                 0.1338                 0.1806
 IR Inten    --     3.0343                 0.8323                 1.7089

                     7                      8                      9
                     A                      A                      A
 Frequencies --   461.2968               640.5788               712.6887
 Red. masses --     3.4728                 2.4553                 2.6896
 Frc consts  --     0.4354                 0.5936                 0.8049
 IR Inten    --     3.7816                15.2464                17.2544

                    10                     11                     12
                     A                      A                      A
 Frequencies --   808.4473               923.4760               930.4713
 Red. masses --     2.6483                 1.3400                 1.7966
 Frc consts  --     1.0198                 0.6733                 0.9165
 IR Inten    --     3.6618                 9.5225                31.9281

                    13                     14                     15
                     A                      A                      A
 Frequencies --  1013.4626              1056.1673              1079.1999
 Red. masses --     1.2381                 3.1332                 3.5603
 Frc consts  --     0.7492                 2.0592                 2.4431
 IR Inten    --     0.2596                 0.3640                15.2548

                    16                     17                     18
                     A                      A                      A
 Frequencies --  1151.8971              1193.9459              1287.2819
 Red. masses --     1.9070                 1.3929                 1.3309
 Frc consts  --     1.4908                 1.1699                 1.2994
 IR Inten    --     3.2243                17.7269                 2.9433

                    19                     20                     21
                     A                      A                      A
 Frequencies --  1324.5475              1349.1140              1356.3654
 Red. masses --     1.3172                 1.2152                 1.5146
 Frc consts  --     1.3616                 1.3032                 1.6418
 IR Inten    --     5.5401                28.7464                 0.6672

                    22                     23                     24
                     A                      A                      A
 Frequencies --  1403.0082              1416.2603              1495.2445
 Red. masses --     1.2046                 1.2124                 1.0497
 Frc consts  --     1.3971                 1.4328                 1.3828
 IR Inten    --     3.7699                 5.7698                12.8330

                    25                     26                     27
                     A                      A                      A
 Frequencies --  1507.4308              1801.1276              2865.2118
 Red. masses --     1.0508                10.4797                 1.0825
 Frc consts  --     1.4068                20.0304                 5.2359
 IR Inten    --     7.0124               165.6199               149.6551

                    28                     29                     30
                     A                      A                      A
 Frequencies --  2873.9755              2947.6428              3003.5258
 Red. masses --     1.0696                 1.0754                 1.0825
 Frc consts  --     5.2054                 5.5052                 5.7538
 IR Inten    --     5.6627                14.9271                15.4212

                    31                     32                     33
                     A                      A                      A
 Frequencies --  3032.7007              3096.0634              3122.9335
 Red. masses --     1.0363                 1.1020                 1.1007
 Frc consts  --     5.6156                 6.2237                 6.3246
 IR Inten    --    24.1024                26.8870                 6.5088

 - Thermochemistry -
 -------------------
 Temperature   298.150 Kelvin.  Pressure   1.00000 Atm.
 Atom  1 has atomic number  6 and mass  12.00000

 Molecular mass:    87.04460 amu.
 Principal axes and moments of inertia in atomic units:
                           1         2         3
     EIGENVALUES --   324.46901 689.42715 926.47435
           X           -0.26275  -0.02206   0.96461
           Y            0.93453  -0.25453   0.24874
           Z            0.24003   0.96681   0.08749
 This molecule is an asymmetric top.
 Rotational symmetry number  1.
 Rotational temperatures (Kelvin)      0.26694     0.12563     0.09349
 Rotational constants (GHZ):           5.56214     2.61774     1.94797
 Zero-point vibrational energy     269836.9 (Joules/Mol)
                                   64.49257 (Kcal/Mol)
 Warning -- explicit consideration of   7 degrees of freedom as
           vibrations may cause significant error
 Vibrational temperatures:     93.57   154.87   293.57   321.14   416.00
          (Kelvin)            532.49   663.70   921.65  1025.40  1163.17
                             1328.67  1338.74  1458.14  1519.59  1552.73
                             1657.32  1717.82  1852.11  1905.73  1941.07
                             1951.50  2018.61  2037.68  2151.32  2168.85
                             2591.42  4122.40  4135.00  4241.00  4321.40
                             4363.37  4454.54  4493.20

 Zero-point correction=                           0.102775 (Hartree/Particle)
 Thermal correction to Energy=                    0.109854
 Thermal correction to Enthalpy=                  0.110798
 Thermal correction to Gibbs Free Energy=         0.070849
 Sum of electronic and zero-point Energies=           -306.985236
 Sum of electronic and thermal Energies=              -306.978158
 Sum of electronic and thermal Enthalpies=            -306.977213
 Sum of electronic and thermal Free Energies=         -307.017163

                     E (Thermal)             CV                S
                      KCal/Mol        Cal/Mol-Kelvin    Cal/Mol-Kelvin
 Total                   68.935             23.745             84.081
 Electronic               0.000              0.000              1.377
 Translational            0.889              2.981             39.304
 Rotational               0.889              2.981             26.830
 Vibrational             67.157             17.783             16.569
 Vibration  1             0.597              1.971              4.298
 Vibration  2             0.606              1.943              3.311
 Vibration  3             0.640              1.834              2.096
 Vibration  4             0.649              1.806              1.933
 Vibration  5             0.686              1.694              1.479
 Vibration  6             0.742              1.534              1.079
 Vibration  7             0.819              1.336              0.762

 Optimization completed.
    -- Stationary point found.
 Normal termination of Gaussian 03 at Tue Jun 18 11:28:12 2013.
