 Gaussian 03, Revision D.01,
 Gaussian 03:  AM64L-G03RevD.01 13-Oct-2005

 -------------------------------------
 # freq nosymm b3lyp/cbsb7 iop(7/33=1)
 -------------------------------------

 -------------------
 Title Card Required
 -------------------
 Symbolic Z-matrix:
 Charge =  0 Multiplicity = 2

                          Input orientation:
 ---------------------------------------------------------------------
 Center     Atomic     Atomic              Coordinates (Angstroms)
 Number     Number      Type              X           Y           Z
 ---------------------------------------------------------------------
    1          6             0       -0.004118   -0.011887   -0.050883
    2          1             0        0.044418   -0.062711    1.029283
    3          1             0        1.719727    0.037698   -0.977290
    4          6             0        0.747626    0.906363   -0.774779
    5          8             0        1.440767   -1.714750   -0.212570
    6          8             0        2.318121   -1.124182   -0.917966
    7          1             0       -0.754592   -0.616598   -0.541694
    8          6             0        1.443605    2.060408   -0.057804
    9          1             0        2.315850    2.409358   -0.617701
   10          1             0        0.766628    2.912769    0.061485
   11          1             0        1.782836    1.760438    0.935963
   12          6             0        0.314582    1.217036   -2.216889
   13          1             0       -0.461875    1.987776   -2.209854
   14          1             0        1.170535    1.625764   -2.771785
   15          8             0       -0.253310    0.103920   -2.888478
   16          1             0        0.435844   -0.558811   -3.006584
 ---------------------------------------------------------------------

 SCF Done:  E(UB+HF-LYP) =  -383.436828989     A.U. after   22 cycles

 Alpha  occ. eigenvalues --  -19.21811 -19.21072 -19.12564 -10.23066 -10.20731
 Alpha  occ. eigenvalues --  -10.18962 -10.18084  -1.21114  -1.03381  -0.82857
 Alpha  occ. eigenvalues --   -0.80790  -0.70665  -0.69277  -0.57807  -0.53400
 Alpha  occ. eigenvalues --   -0.51736  -0.50387  -0.48376  -0.47842  -0.45394
 Alpha  occ. eigenvalues --   -0.43190  -0.41798  -0.39647  -0.38515  -0.34465
 Alpha  occ. eigenvalues --   -0.30138  -0.28980  -0.27795  -0.26703
 Alpha virt. eigenvalues --   -0.05398   0.03711   0.04555   0.07106   0.08682
 Alpha virt. eigenvalues --    0.09465   0.10369   0.12534   0.13669   0.15066
 Alpha virt. eigenvalues --    0.18224   0.18880   0.19680   0.23621   0.26341

  Beta  occ. eigenvalues --  -19.20404 -19.19269 -19.12564 -10.23068 -10.20823
  Beta  occ. eigenvalues --  -10.18949 -10.18085  -1.17977  -1.03380  -0.82815
  Beta  occ. eigenvalues --   -0.76464  -0.70714  -0.69285  -0.57680  -0.52473
  Beta  occ. eigenvalues --   -0.51643  -0.48653  -0.46520  -0.44995  -0.43260
  Beta  occ. eigenvalues --   -0.41752  -0.40817  -0.39631  -0.38478  -0.34412
  Beta  occ. eigenvalues --   -0.29317  -0.28920  -0.25638
  Beta virt. eigenvalues --   -0.10321  -0.05138   0.03731   0.04638   0.07111
  Beta virt. eigenvalues --    0.08741   0.09488   0.10403   0.12552   0.13720
  Beta virt. eigenvalues --    0.15691   0.18244   0.19370   0.20681   0.23674

 Mulliken atomic charges:
              1
     1  C   -0.061290
     2  H    0.133040
     3  H    0.253842
     4  C   -0.398383
     5  O   -0.146838
     6  O   -0.148194
     7  H    0.142814
     8  C   -0.250977
     9  H    0.110291
    10  H    0.120572
    11  H    0.115299
    12  C    0.058257
    13  H    0.120377
    14  H    0.101764
    15  O   -0.389000
    16  H    0.238425
 Sum of Mulliken charges=   0.00000

 Dipole moment (field-independent basis, Debye):
    X=     0.0076    Y=     2.0901    Z=     0.5539  Tot=     2.1623
 Quadrupole moment (field-independent basis, Debye-Ang):
   XX=   -46.2987   YY=   -43.6725   ZZ=   -43.9352
   XY=     4.1109   XZ=    -3.4564   YZ=    -0.1957

  Exact polarizability:  61.297  -3.741  71.379  -3.066  -2.387  57.349
 Approx polarizability: 108.619 -11.260 108.536 -16.697  -6.120  81.421

 ******    1 imaginary frequencies (negative Signs) ******

                     1                      2                      3
                     A                      A                      A
 Frequencies --  -940.4683                78.5533               128.1743
 Red. masses --     1.5183                 6.0117                 3.2494
 Frc consts  --     0.7912                 0.0219                 0.0315
 IR Inten    --    99.7012                 5.7999                 0.3258

                     4                      5                      6
                     A                      A                      A
 Frequencies --   179.9827               187.2305               222.0622
 Red. masses --     1.0633                 4.2364                 3.0729
 Frc consts  --     0.0203                 0.0875                 0.0893
 IR Inten    --     0.2009                 0.3809                 1.0675

                     7                      8                      9
                     A                      A                      A
 Frequencies --   312.7203               346.7333               368.5478
 Red. masses --     3.3760                 2.0384                 1.5584
 Frc consts  --     0.1945                 0.1444                 0.1247
 IR Inten    --    17.1042                68.2507                84.9808

                    10                     11                     12
                     A                      A                      A
 Frequencies --   375.2178               514.7895               539.3405
 Red. masses --     2.7172                 2.9272                 2.5588
 Frc consts  --     0.2254                 0.4570                 0.4385
 IR Inten    --     4.5057                10.5188                22.4722

                    13                     14                     15
                     A                      A                      A
 Frequencies --   674.4302               762.0480               872.6702
 Red. masses --     6.0318                 1.0715                 2.3846
 Frc consts  --     1.6165                 0.3666                 1.0699
 IR Inten    --     3.6060                 0.6515                 9.3006

                    16                     17                     18
                     A                      A                      A
 Frequencies --   921.8274               985.2985               996.2053
 Red. masses --     1.6257                 1.3784                 1.3484
 Frc consts  --     0.8139                 0.7884                 0.7884
 IR Inten    --     5.6467                 8.1034                 3.5129

                    19                     20                     21
                     A                      A                      A
 Frequencies --  1020.1422              1072.0768              1089.6569
 Red. masses --     1.5300                 2.5647                 1.8787
 Frc consts  --     0.9382                 1.7368                 1.3142
 IR Inten    --    29.8014                75.5105                15.0230

                    22                     23                     24
                     A                      A                      A
 Frequencies --  1183.3455              1239.3098              1279.3172
 Red. masses --     1.2946                 1.3973                 1.4082
 Frc consts  --     1.0681                 1.2644                 1.3579
 IR Inten    --    31.3656                18.1002                 5.2196

                    25                     26                     27
                     A                      A                      A
 Frequencies --  1324.6600              1368.3170              1403.4002
 Red. masses --     7.0715                 1.4715                 1.2402
 Frc consts  --     7.3109                 1.6233                 1.4391
 IR Inten    --   187.0384                15.3805                16.9104

                    28                     29                     30
                     A                      A                      A
 Frequencies --  1417.7753              1418.8290              1490.0897
 Red. masses --     1.3266                 1.1897                 1.0500
 Frc consts  --     1.5711                 1.4110                 1.3736
 IR Inten    --     5.0443                27.5320                 9.2317

                    31                     32                     33
                     A                      A                      A
 Frequencies --  1501.6451              1515.1313              1567.3249
 Red. masses --     1.0627                 1.0992                 1.1851
 Frc consts  --     1.4119                 1.4867                 1.7153
 IR Inten    --     8.1019                 2.3215                46.5125

                    34                     35                     36
                     A                      A                      A
 Frequencies --  1588.9241              2986.2320              3022.2374
 Red. masses --     2.0527                 1.0690                 1.0373
 Frc consts  --     3.0533                 5.6166                 5.5821
 IR Inten    --     9.0725                60.2965                33.2545

                    37                     38                     39
                     A                      A                      A
 Frequencies --  3058.8103              3076.7256              3101.6014
 Red. masses --     1.0945                 1.1001                 1.1011
 Frc consts  --     6.0336                 6.1356                 6.2411
 IR Inten    --    26.9087                24.8306                21.0441

                    40                     41                     42
                     A                      A                      A
 Frequencies --  3159.5492              3254.6852              3813.8248
 Red. masses --     1.0572                 1.1179                 1.0664
 Frc consts  --     6.2179                 6.9771                 9.1385
 IR Inten    --     7.0014                 1.4968                24.0387

 - Thermochemistry -
 -------------------
 Temperature   298.150 Kelvin.  Pressure   1.00000 Atm.
 Atom  1 has atomic number  6 and mass  12.00000

 Molecular mass:   105.05517 amu.
 Principal axes and moments of inertia in atomic units:
                           1         2         3
     EIGENVALUES --   646.62556 875.713541179.52906
           X           -0.44113   0.30603   0.84365
           Y            0.77203   0.60871   0.18288
           Z           -0.45757   0.73200  -0.50478
 This molecule is an asymmetric top.
 Rotational symmetry number  1.
 Warning -- assumption of classical behavior for rotation
           may cause significant error
 Rotational temperatures (Kelvin)      0.13395     0.09891     0.07343
 Rotational constants (GHZ):           2.79101     2.06088     1.53005
    1 imaginary frequencies ignored.
 Zero-point vibrational energy     331481.9 (Joules/Mol)
                                   79.22607 (Kcal/Mol)
 Warning -- explicit consideration of  11 degrees of freedom as
           vibrations may cause significant error
 Vibrational temperatures:    113.02   184.41   258.95   269.38   319.50
          (Kelvin)            449.93   498.87   530.26   539.85   740.67
                              775.99   970.35  1096.42  1255.58  1326.30
                             1417.62  1433.32  1467.76  1542.48  1567.77
                             1702.57  1783.09  1840.65  1905.89  1968.70
                             2019.18  2039.86  2041.38  2143.90  2160.53
                             2179.93  2255.03  2286.10  4296.52  4348.32
                             4400.94  4426.72  4462.51  4545.88  4682.76
                             5487.24

 Zero-point correction=                           0.126255 (Hartree/Particle)
 Thermal correction to Energy=                    0.134695
 Thermal correction to Enthalpy=                  0.135639
 Thermal correction to Gibbs Free Energy=         0.092850
 Sum of electronic and zero-point Energies=           -383.310574
 Sum of electronic and thermal Energies=              -383.302134
 Sum of electronic and thermal Enthalpies=            -383.301190
 Sum of electronic and thermal Free Energies=         -383.343979

                     E (Thermal)             CV                S
                      KCal/Mol        Cal/Mol-Kelvin    Cal/Mol-Kelvin
 Total                   84.522             29.832             90.058
 Electronic               0.000              0.000              1.377
 Translational            0.889              2.981             39.865
 Rotational               0.889              2.981             27.993
 Vibrational             82.745             23.870             20.823
 Vibration  1             0.600              1.964              3.927
 Vibration  2             0.611              1.925              2.973
 Vibration  3             0.629              1.867              2.329
 Vibration  4             0.632              1.857              2.255
 Vibration  5             0.648              1.807              1.942
 Vibration  6             0.701              1.649              1.348
 Vibration  7             0.725              1.582              1.181
 Vibration  8             0.741              1.537              1.086
 Vibration  9             0.746              1.523              1.058
 Vibration 10             0.870              1.217              0.622
 Vibration 11             0.894              1.163              0.567

 Optimization completed.
    -- Stationary point found.
 Normal termination of Gaussian 03 at Tue Jun 18 11:08:47 2013.
