 Gaussian 03, Revision D.01,
 Gaussian 03:  AM64L-G03RevD.01 13-Oct-2005

 -------------------------------------
 # freq nosymm b3lyp/cbsb7 iop(7/33=1)
 -------------------------------------

 -------------------
 Title Card Required
 -------------------
 Symbolic Z-matrix:
 Charge =  0 Multiplicity = 2

                          Input orientation:
 ---------------------------------------------------------------------
 Center     Atomic     Atomic              Coordinates (Angstroms)
 Number     Number      Type              X           Y           Z
 ---------------------------------------------------------------------
    1          6             0       -2.066466    0.915674    0.357595
    2          6             0       -1.482578    1.410812    1.521716
    3          1             0       -2.037834    2.056710    2.191531
    4          1             0       -0.434003    1.242569    1.737760
    5          6             0       -1.353714   -0.140226   -0.445370
    6          1             0       -1.369681   -1.086760    0.104947
    7          1             0       -1.851657   -0.292701   -1.401701
    8          1             0       -0.315525    0.139946   -0.624698
    9          8             0       -1.878915    2.475359   -0.741001
   10          8             0       -0.686667    2.468556   -1.474021
   11          1             0       -0.161682    3.144623   -1.022182
   12          6             0       -3.585921    0.932313    0.256867
   13          1             0       -3.962083    1.834952    0.758787
   14          1             0       -3.981960    0.064493    0.794018
   15          8             0       -4.059946    0.836490   -1.069647
   16          1             0       -3.599013    1.534857   -1.553890
 ---------------------------------------------------------------------

 SCF Done:  E(UB+HF-LYP) =  -383.444624271     A.U. after   20 cycles

 Alpha  occ. eigenvalues --  -19.18526 -19.17598 -19.10632 -10.22575 -10.22117
 Alpha  occ. eigenvalues --  -10.18950 -10.16613  -1.12940  -1.01942  -0.86870
 Alpha  occ. eigenvalues --   -0.80965  -0.70413  -0.68366  -0.56502  -0.52413
 Alpha  occ. eigenvalues --   -0.50523  -0.47814  -0.47394  -0.44666  -0.43272
 Alpha  occ. eigenvalues --   -0.42129  -0.39619  -0.38268  -0.37588  -0.33417
 Alpha  occ. eigenvalues --   -0.30028  -0.28840  -0.27413  -0.23173
 Alpha virt. eigenvalues --   -0.00244   0.03089   0.04875   0.07535   0.08326
 Alpha virt. eigenvalues --    0.08776   0.09546   0.11157   0.12318   0.13296
 Alpha virt. eigenvalues --    0.16028   0.18808   0.20562   0.25243   0.25894

  Beta  occ. eigenvalues --  -19.18272 -19.16279 -19.10623 -10.22771 -10.22097
  Beta  occ. eigenvalues --  -10.18022 -10.16597  -1.11559  -1.01916  -0.85148
  Beta  occ. eigenvalues --   -0.79885  -0.69942  -0.67415  -0.56088  -0.51851
  Beta  occ. eigenvalues --   -0.50264  -0.47172  -0.47012  -0.43885  -0.41961
  Beta  occ. eigenvalues --   -0.41830  -0.38231  -0.37840  -0.37445  -0.33321
  Beta  occ. eigenvalues --   -0.27935  -0.27492  -0.25943
  Beta virt. eigenvalues --   -0.11114   0.01081   0.03576   0.05331   0.07920
  Beta virt. eigenvalues --    0.08589   0.09064   0.09804   0.11371   0.12518
  Beta virt. eigenvalues --    0.13355   0.16095   0.18788   0.20604   0.25206

 Mulliken atomic charges:
              1
     1  C   -0.195857
     2  C   -0.104441
     3  H    0.109134
     4  H    0.109807
     5  C   -0.211750
     6  H    0.117508
     7  H    0.122553
     8  H    0.116799
     9  O   -0.277694
    10  O   -0.221545
    11  H    0.270470
    12  C    0.094581
    13  H    0.100551
    14  H    0.119635
    15  O   -0.395371
    16  H    0.245620
 Sum of Mulliken charges=   0.00000

 Dipole moment (field-independent basis, Debye):
    X=     2.1918    Y=     0.6655    Z=     2.0712  Tot=     3.0882
 Quadrupole moment (field-independent basis, Debye-Ang):
   XX=   -51.9578   YY=   -38.9840   ZZ=   -44.2403
   XY=     2.5942   XZ=    -6.2474   YZ=     1.8692

  Exact polarizability:  62.799   5.344  61.850  -2.858  -8.154  75.896
 Approx polarizability:  86.044   6.994  89.993  -3.856 -20.382 121.781

 ******    1 imaginary frequencies (negative Signs) ******

                     1                      2                      3
                     A                      A                      A
 Frequencies --  -446.3972                81.7129               153.9948
 Red. masses --     8.7173                 4.9511                 1.4912
 Frc consts  --     1.0235                 0.0195                 0.0208
 IR Inten    --    52.8399                 3.8577                 3.5637

                     4                      5                      6
                     A                      A                      A
 Frequencies --   166.6424               203.3246               235.1474
 Red. masses --     1.9080                 2.6886                 3.6349
 Frc consts  --     0.0312                 0.0655                 0.1184
 IR Inten    --     0.6994                 0.7531                 1.9990

                     7                      8                      9
                     A                      A                      A
 Frequencies --   278.7091               328.3056               376.1346
 Red. masses --     4.8044                 2.8203                 2.1723
 Frc consts  --     0.2199                 0.1791                 0.1811
 IR Inten    --     3.9936                 6.7582                31.1201

                    10                     11                     12
                     A                      A                      A
 Frequencies --   408.2986               436.8709               502.2479
 Red. masses --     1.5576                 1.9133                 1.2222
 Frc consts  --     0.1530                 0.2151                 0.1816
 IR Inten    --    63.3913                53.1251                20.2211

                    13                     14                     15
                     A                      A                      A
 Frequencies --   531.5071               580.9938               779.4582
 Red. masses --     1.3497                 1.6987                 1.4876
 Frc consts  --     0.2246                 0.3378                 0.5325
 IR Inten    --    36.0825               100.3864                37.1061

                    16                     17                     18
                     A                      A                      A
 Frequencies --   787.1491               911.1550               943.3725
 Red. masses --     3.1466                 1.7257                 3.6795
 Frc consts  --     1.1487                 0.8441                 1.9293
 IR Inten    --     9.6269                43.3564                95.0913

                    19                     20                     21
                     A                      A                      A
 Frequencies --   968.9267              1033.0022              1054.2270
 Red. masses --     1.5050                 1.5823                 1.6367
 Frc consts  --     0.8325                 0.9948                 1.0717
 IR Inten    --    13.5941                 7.6103                31.1792

                    22                     23                     24
                     A                      A                      A
 Frequencies --  1095.2403              1223.6408              1299.5777
 Red. masses --     5.1638                 1.1162                 2.9358
 Frc consts  --     3.6495                 0.9846                 2.9213
 IR Inten    --    70.7216                19.9955                 6.8885

                    25                     26                     27
                     A                      A                      A
 Frequencies --  1331.7776              1378.3194              1394.4744
 Red. masses --     1.6066                 1.1220                 1.2524
 Frc consts  --     1.6789                 1.2558                 1.4349
 IR Inten    --    18.9610                18.3943                25.6385

                    28                     29                     30
                     A                      A                      A
 Frequencies --  1425.2040              1442.5520              1474.4005
 Red. masses --     1.4001                 1.2870                 1.0846
 Frc consts  --     1.6755                 1.5780                 1.3891
 IR Inten    --    20.7824                69.4586                15.2212

                    31                     32                     33
                     A                      A                      A
 Frequencies --  1493.3322              1495.8957              1516.1117
 Red. masses --     1.0765                 1.0735                 1.5689
 Frc consts  --     1.4144                 1.4153                 2.1248
 IR Inten    --     5.7848                16.5637                22.3749

                    34                     35                     36
                     A                      A                      A
 Frequencies --  2986.1762              3035.9177              3056.7128
 Red. masses --     1.0680                 1.0438                 1.0940
 Frc consts  --     5.6111                 5.6683                 6.0226
 IR Inten    --    49.7454                 9.0347                19.3460

                    37                     38                     39
                     A                      A                      A
 Frequencies --  3106.6150              3134.8655              3142.7581
 Red. masses --     1.0910                 1.0539                 1.1012
 Frc consts  --     6.2036                 6.1020                 6.4081
 IR Inten    --     6.0365                 7.2532                 7.4172

                    40                     41                     42
                     A                      A                      A
 Frequencies --  3230.5555              3738.7594              3762.0255
 Red. masses --     1.1177                 1.0688                 1.0649
 Frc consts  --     6.8728                 8.8028                 8.8799
 IR Inten    --     9.4541                51.9468                35.3204

 - Thermochemistry -
 -------------------
 Temperature   298.150 Kelvin.  Pressure   1.00000 Atm.
 Atom  1 has atomic number  6 and mass  12.00000

 Molecular mass:   105.05517 amu.
 Principal axes and moments of inertia in atomic units:
                           1         2         3
     EIGENVALUES --   603.99727 834.007921009.86871
           X            0.86306   0.37205  -0.34162
           Y            0.47164  -0.35158   0.80867
           Z           -0.18076   0.85905   0.47891
 This molecule is an asymmetric top.
 Rotational symmetry number  1.
 Warning -- assumption of classical behavior for rotation
           may cause significant error
 Rotational temperatures (Kelvin)      0.14340     0.10385     0.08577
 Rotational constants (GHZ):           2.98800     2.16394     1.78710
    1 imaginary frequencies ignored.
 Zero-point vibrational energy     338101.1 (Joules/Mol)
                                   80.80811 (Kcal/Mol)
 Warning -- explicit consideration of  13 degrees of freedom as
           vibrations may cause significant error
 Vibrational temperatures:    117.57   221.56   239.76   292.54   338.32
          (Kelvin)            401.00   472.36   541.17   587.45   628.56
                              722.62   764.72   835.92  1121.47  1132.53
                             1310.95  1357.30  1394.07  1486.26  1516.80
                             1575.80  1760.54  1869.80  1916.13  1983.09
                             2006.34  2050.55  2075.51  2121.33  2148.57
                             2152.26  2181.34  4296.44  4368.00  4397.92
                             4469.72  4510.37  4521.72  4648.04  5379.23
                             5412.71

 Zero-point correction=                           0.128776 (Hartree/Particle)
 Thermal correction to Energy=                    0.137510
 Thermal correction to Enthalpy=                  0.138454
 Thermal correction to Gibbs Free Energy=         0.095487
 Sum of electronic and zero-point Energies=           -383.315848
 Sum of electronic and thermal Energies=              -383.307114
 Sum of electronic and thermal Enthalpies=            -383.306170
 Sum of electronic and thermal Free Energies=         -383.349137

                     E (Thermal)             CV                S
                      KCal/Mol        Cal/Mol-Kelvin    Cal/Mol-Kelvin
 Total                   86.289             31.354             90.432
 Electronic               0.000              0.000              1.377
 Translational            0.889              2.981             39.865
 Rotational               0.889              2.981             27.722
 Vibrational             84.511             25.393             21.467
 Vibration  1             0.600              1.962              3.849
 Vibration  2             0.620              1.898              2.622
 Vibration  3             0.624              1.883              2.473
 Vibration  4             0.639              1.835              2.103
 Vibration  5             0.655              1.787              1.839
 Vibration  6             0.679              1.713              1.542
 Vibration  7             0.712              1.619              1.268
 Vibration  8             0.747              1.521              1.055
 Vibration  9             0.773              1.452              0.933
 Vibration 10             0.797              1.390              0.837
 Vibration 11             0.858              1.245              0.653
 Vibration 12             0.886              1.180              0.584
 Vibration 13             0.938              1.072              0.484

 Optimization completed.
    -- Stationary point found.
 Normal termination of Gaussian 03 at Sun Jun  9 15:02:53 2013.
