 Gaussian 03, Revision D.01,
 Gaussian 03:  AM64L-G03RevD.01 13-Oct-2005

 -------------------------------------
 # freq nosymm b3lyp/cbsb7 iop(7/33=1)
 -------------------------------------

 -------
 NBO NRT
 -------
 Symbolic Z-matrix:
 Charge =  0 Multiplicity = 2

                          Input orientation:
 ---------------------------------------------------------------------
 Center     Atomic     Atomic              Coordinates (Angstroms)
 Number     Number      Type              X           Y           Z
 ---------------------------------------------------------------------
    1          6             0       -0.002000   -0.010450    0.004340
    2          6             0       -0.007470   -0.033870    1.506390
    3          6             0        1.306220   -0.013900    2.228770
    4          6             0       -0.716330   -1.992180    1.918280
    5          8             0        0.133780   -2.758620    1.441780
    6          8             0       -1.007780    0.800390    1.940520
    7          8             0       -1.008760    0.898070    3.393730
    8          1             0       -1.018710    0.011030   -0.392070
    9          1             0        0.498680   -0.909500   -0.357740
   10          1             0        0.532930    0.872210   -0.366150
   11          1             0        1.855370    0.905500    1.986290
   12          1             0        1.892920   -0.874960    1.907450
   13          1             0        1.173240   -0.060010    3.308080
   14          1             0       -1.670940   -1.798240    1.390000
   15          1             0       -0.746160   -1.773400    3.002650
   16          1             0       -1.964110    0.956470    3.533410
 ---------------------------------------------------------------------

 SCF Done:  E(UB+HF-LYP) =  -383.448916568     A.U. after   21 cycles

 Alpha  occ. eigenvalues --  -19.22786 -19.20415 -19.09059 -10.26766 -10.22935
 Alpha  occ. eigenvalues --  -10.18134 -10.17616  -1.16552  -1.01558  -0.96940
 Alpha  occ. eigenvalues --   -0.78870  -0.71959  -0.62816  -0.59568  -0.55189
 Alpha  occ. eigenvalues --   -0.50837  -0.49121  -0.46544  -0.44546  -0.42154
 Alpha  occ. eigenvalues --   -0.41438  -0.41007  -0.40502  -0.38907  -0.36934
 Alpha  occ. eigenvalues --   -0.36144  -0.32232  -0.23944  -0.20325
 Alpha virt. eigenvalues --   -0.02607   0.02652   0.02809   0.05645   0.07980
 Alpha virt. eigenvalues --    0.09142   0.10862   0.11418   0.11608   0.14641
 Alpha virt. eigenvalues --    0.15812   0.18051   0.20340   0.22328   0.24452

  Beta  occ. eigenvalues --  -19.22370 -19.20384 -19.08162 -10.25842 -10.23035
  Beta  occ. eigenvalues --  -10.18165 -10.17615  -1.16011  -0.99966  -0.96398
  Beta  occ. eigenvalues --   -0.78014  -0.71771  -0.61705  -0.58997  -0.54839
  Beta  occ. eigenvalues --   -0.49969  -0.47543  -0.46258  -0.43966  -0.41524
  Beta  occ. eigenvalues --   -0.40872  -0.40403  -0.40264  -0.38669  -0.35828
  Beta  occ. eigenvalues --   -0.34003  -0.30444  -0.23135
  Beta virt. eigenvalues --   -0.09728  -0.02297   0.02871   0.04861   0.06470
  Beta virt. eigenvalues --    0.08170   0.09229   0.11297   0.11657   0.11809
  Beta virt. eigenvalues --    0.14717   0.15882   0.18798   0.21147   0.22686

 Mulliken atomic charges:
              1
     1  C   -0.249951
     2  C    0.003105
     3  C   -0.240888
     4  C    0.051655
     5  O   -0.340029
     6  O   -0.198555
     7  O   -0.228164
     8  H    0.124844
     9  H    0.147666
    10  H    0.120124
    11  H    0.117004
    12  H    0.140655
    13  H    0.139106
    14  H    0.063890
    15  H    0.073047
    16  H    0.276488
 Sum of Mulliken charges=   0.00000

 Dipole moment (field-independent basis, Debye):
    X=    -1.5207    Y=     2.9126    Z=     0.6366  Tot=     3.3468
 Quadrupole moment (field-independent basis, Debye-Ang):
   XX=   -37.1747   YY=   -54.7698   ZZ=   -37.8820
   XY=     1.2398   XZ=    -6.1493   YZ=     3.5222

  Exact polarizability:  61.177   0.353  71.615  -5.247   3.302  65.041
 Approx polarizability:  85.586  -7.322 108.350  -8.527   6.960  91.343

 ******    1 imaginary frequencies (negative Signs) ******

                     1                      2                      3
                     A                      A                      A
 Frequencies --  -215.8191                97.8045               109.1270
 Red. masses --     7.8792                 2.9557                 6.2460
 Frc consts  --     0.2162                 0.0167                 0.0438
 IR Inten    --     3.5677                 8.4425                 3.2151

                     4                      5                      6
                     A                      A                      A
 Frequencies --   138.0939               175.0998               191.8640
 Red. masses --     1.1006                 1.6009                 1.3173
 Frc consts  --     0.0124                 0.0289                 0.0286
 IR Inten    --   120.2699                13.2177                 8.7024

                     7                      8                      9
                     A                      A                      A
 Frequencies --   224.8765               228.5494               293.8187
 Red. masses --     1.3726                 2.4757                 3.9016
 Frc consts  --     0.0409                 0.0762                 0.1985
 IR Inten    --     6.8398                 4.5587                 9.5325

                    10                     11                     12
                     A                      A                      A
 Frequencies --   343.6364               391.2866               405.4627
 Red. masses --     2.7467                 3.9821                 2.6363
 Frc consts  --     0.1911                 0.3592                 0.2554
 IR Inten    --     6.5258                 2.2498                11.2480

                    13                     14                     15
                     A                      A                      A
 Frequencies --   535.2836               654.9093               788.7169
 Red. masses --     4.3609                 1.1144                 4.1353
 Frc consts  --     0.7362                 0.2816                 1.5157
 IR Inten    --    10.6213                 0.3798                13.5111

                    16                     17                     18
                     A                      A                      A
 Frequencies --   901.6699               958.2609               984.9806
 Red. masses --     5.3037                 1.3267                 2.0782
 Frc consts  --     2.5405                 0.7178                 1.1879
 IR Inten    --    19.0452                 0.4649                13.2946

                    19                     20                     21
                     A                      A                      A
 Frequencies --  1000.6890              1063.0410              1145.0152
 Red. masses --     1.4212                 1.2675                 1.5440
 Frc consts  --     0.8385                 0.8439                 1.1927
 IR Inten    --     2.3457                 0.9515                50.4185

                    22                     23                     24
                     A                      A                      A
 Frequencies --  1238.1131              1258.1091              1273.4947
 Red. masses --     1.3348                 3.0114                 2.5857
 Frc consts  --     1.2056                 2.8084                 2.4707
 IR Inten    --     3.1758                39.1239                34.7414

                    25                     26                     27
                     A                      A                      A
 Frequencies --  1394.5516              1406.2963              1420.1344
 Red. masses --     1.2106                 1.2752                 1.3728
 Frc consts  --     1.3871                 1.4858                 1.6313
 IR Inten    --    61.4544                36.1236                27.1236

                    28                     29                     30
                     A                      A                      A
 Frequencies --  1458.7733              1467.7690              1478.3149
 Red. masses --     1.7768                 1.0474                 1.0459
 Frc consts  --     2.2278                 1.3294                 1.3467
 IR Inten    --    59.1489                 5.7175                 1.7628

                    31                     32                     33
                     A                      A                      A
 Frequencies --  1490.1496              1498.5562              1605.0659
 Red. masses --     1.0717                 1.0574                 1.9515
 Frc consts  --     1.4022                 1.3990                 2.9622
 IR Inten    --     8.0087                 6.1357                33.7133

                    34                     35                     36
                     A                      A                      A
 Frequencies --  2869.3331              2921.3989              3004.5298
 Red. masses --     1.0424                 1.1156                 1.0524
 Frc consts  --     5.0563                 5.6097                 5.5974
 IR Inten    --    65.9650               110.4158                16.7977

                    37                     38                     39
                     A                      A                      A
 Frequencies --  3014.9135              3090.5445              3105.3011
 Red. masses --     1.0454                 1.0889                 1.0809
 Frc consts  --     5.5984                 6.1278                 6.1411
 IR Inten    --    35.1203                10.6626                 4.1174

                    40                     41                     42
                     A                      A                      A
 Frequencies --  3127.7401              3149.0315              3785.9217
 Red. masses --     1.1024                 1.1019                 1.0684
 Frc consts  --     6.3540                 6.4378                 9.0222
 IR Inten    --     5.6650                 3.6193                84.8785

 - Thermochemistry -
 -------------------
 Temperature   298.150 Kelvin.  Pressure   1.00000 Atm.
 Atom  1 has atomic number  6 and mass  12.00000

 Molecular mass:   105.05517 amu.
 Principal axes and moments of inertia in atomic units:
                           1         2         3
     EIGENVALUES --   554.02361 953.397611082.71018
           X           -0.22413  -0.37132   0.90105
           Y            0.89103  -0.45259   0.03512
           Z            0.39477   0.81073   0.43229
 This molecule is an asymmetric top.
 Rotational symmetry number  1.
 Warning -- assumption of classical behavior for rotation
           may cause significant error
 Rotational temperatures (Kelvin)      0.15634     0.09085     0.08000
 Rotational constants (GHZ):           3.25752     1.89296     1.66687
    1 imaginary frequencies ignored.
 Zero-point vibrational energy     333101.5 (Joules/Mol)
                                   79.61318 (Kcal/Mol)
 Warning -- explicit consideration of  12 degrees of freedom as
           vibrations may cause significant error
 Vibrational temperatures:    140.72   157.01   198.69   251.93   276.05
          (Kelvin)            323.55   328.83   422.74   494.42   562.97
                              583.37   770.15   942.27  1134.79  1297.30
                             1378.72  1417.17  1439.77  1529.48  1647.42
                             1781.37  1810.14  1832.27  2006.45  2023.34
                             2043.25  2098.85  2111.79  2126.96  2143.99
                             2156.09  2309.33  4128.33  4203.24  4322.84
                             4337.78  4446.60  4467.83  4500.11  4530.75
                             5447.09

 Zero-point correction=                           0.126872 (Hartree/Particle)
 Thermal correction to Energy=                    0.136185
 Thermal correction to Enthalpy=                  0.137129
 Thermal correction to Gibbs Free Energy=         0.092646
 Sum of electronic and zero-point Energies=           -383.322045
 Sum of electronic and thermal Energies=              -383.312732
 Sum of electronic and thermal Enthalpies=            -383.311787
 Sum of electronic and thermal Free Energies=         -383.356271

                     E (Thermal)             CV                S
                      KCal/Mol        Cal/Mol-Kelvin    Cal/Mol-Kelvin
 Total                   85.457             31.605             93.623
 Electronic               0.000              0.000              1.377
 Translational            0.889              2.981             39.865
 Rotational               0.889              2.981             27.838
 Vibrational             83.680             25.643             24.542
 Vibration  1             0.603              1.951              3.498
 Vibration  2             0.606              1.942              3.284
 Vibration  3             0.614              1.915              2.830
 Vibration  4             0.627              1.873              2.380
 Vibration  5             0.634              1.851              2.210
 Vibration  6             0.650              1.803              1.919
 Vibration  7             0.651              1.797              1.890
 Vibration  8             0.689              1.685              1.452
 Vibration  9             0.722              1.588              1.195
 Vibration 10             0.759              1.489              0.995
 Vibration 11             0.770              1.458              0.943
 Vibration 12             0.890              1.172              0.576

 Optimization completed.
    -- Stationary point found.
 Normal termination of Gaussian 03 at Wed Jun 26 11:49:18 2019.
