 Gaussian 03, Revision D.01,
 Gaussian 03:  AM64L-G03RevD.01 13-Oct-2005

 -------------------------------------
 # freq nosymm b3lyp/cbsb7 iop(7/33=1)
 -------------------------------------

 -------------------
 Title Card Required
 -------------------
 Symbolic Z-matrix:
 Charge =  0 Multiplicity = 2

                          Input orientation:
 ---------------------------------------------------------------------
 Center     Atomic     Atomic              Coordinates (Angstroms)
 Number     Number      Type              X           Y           Z
 ---------------------------------------------------------------------
    1          6             0       -3.768148    2.021324   -0.331278
    2          1             0       -3.063176    1.404375   -0.896823
    3          1             0       -4.244179    2.721973   -1.025858
    4          1             0       -4.569179    1.348038    0.020497
    5          6             0       -3.104439    2.736318    0.800321
    6          6             0       -3.827412    3.857101    1.476091
    7          1             0       -4.695212    3.487205    2.049280
    8          1             0       -3.174198    4.380496    2.176278
    9          1             0       -4.221424    4.580101    0.753467
   10          6             0       -1.973920    2.071682    1.523105
   11          1             0       -2.341324    1.476549    2.373896
   12          1             0       -1.459322    1.371556    0.848765
   13          8             0       -1.047426    2.990297    2.111473
   14          1             0       -0.734161    3.562921    1.402825
 ---------------------------------------------------------------------

 SCF Done:  E(UB+HF-LYP) =  -233.077365465     A.U. after   14 cycles

 Alpha  occ. eigenvalues --  -19.11018 -10.21457 -10.18085 -10.16838 -10.16127
 Alpha  occ. eigenvalues --   -1.01651  -0.80383  -0.69775  -0.68358  -0.55859
 Alpha  occ. eigenvalues --   -0.49569  -0.45839  -0.45477  -0.41547  -0.41320
 Alpha  occ. eigenvalues --   -0.39208  -0.37454  -0.36032  -0.32755  -0.27647
 Alpha  occ. eigenvalues --   -0.18645
 Alpha virt. eigenvalues --    0.03547   0.05664   0.07925   0.09151   0.10416
 Alpha virt. eigenvalues --    0.10793   0.12427   0.13630   0.15828   0.18341
 Alpha virt. eigenvalues --    0.18841   0.25264   0.26250   0.28316   0.31410

  Beta  occ. eigenvalues --  -19.10947 -10.21540 -10.16923 -10.16721 -10.16198
  Beta  occ. eigenvalues --   -1.01449  -0.78681  -0.69539  -0.68101  -0.54392
  Beta  occ. eigenvalues --   -0.49151  -0.45382  -0.43874  -0.41152  -0.40690
  Beta  occ. eigenvalues --   -0.38610  -0.37228  -0.35607  -0.32298  -0.27375
  Beta virt. eigenvalues --   -0.05245   0.03779   0.05903   0.07978   0.09356
  Beta virt. eigenvalues --    0.10611   0.11165   0.12626   0.13921   0.15976
  Beta virt. eigenvalues --    0.18667   0.20111   0.25801   0.26719   0.28711

 Mulliken atomic charges:
              1
     1  C   -0.270593
     2  H    0.106525
     3  H    0.112614
     4  H    0.111271
     5  C   -0.212149
     6  C   -0.264260
     7  H    0.107033
     8  H    0.117139
     9  H    0.110111
    10  C    0.047336
    11  H    0.106529
    12  H    0.093874
    13  O   -0.391903
    14  H    0.226472
 Sum of Mulliken charges=   0.00000

 Dipole moment (field-independent basis, Debye):
    X=    -0.7056    Y=    -0.0838    Z=    -1.5146  Tot=     1.6730
 Quadrupole moment (field-independent basis, Debye-Ang):
   XX=   -29.5047   YY=   -31.9125   ZZ=   -38.3864
   XY=    -0.7907   XZ=     0.1542   YZ=    -4.9381

  Exact polarizability:  53.543  -1.534  51.107   3.946   3.608  50.023
 Approx polarizability:  69.662   0.133  67.686   2.944   1.915  67.014

                     1                      2                      3
                     A                      A                      A
 Frequencies --    91.6341               116.9203               150.5641
 Red. masses --     2.3528                 1.0731                 1.0443
 Frc consts  --     0.0116                 0.0086                 0.0139
 IR Inten    --     3.1541                 0.2874                 0.4672

                     4                      5                      6
                     A                      A                      A
 Frequencies --   243.4421               301.3924               357.1705
 Red. masses --     2.6773                 2.3171                 2.2072
 Frc consts  --     0.0935                 0.1240                 0.1659
 IR Inten    --     0.1704                11.2308                 3.3539

                     7                      8                      9
                     A                      A                      A
 Frequencies --   379.1692               503.6982               770.9561
 Red. masses --     1.1792                 3.2702                 3.4835
 Frc consts  --     0.0999                 0.4888                 1.2199
 IR Inten    --   116.7793                17.1304                 7.8629

                    10                     11                     12
                     A                      A                      A
 Frequencies --   913.5058               941.2628               973.2095
 Red. masses --     1.4719                 1.2524                 1.4432
 Frc consts  --     0.7237                 0.6537                 0.8053
 IR Inten    --    13.2557                 2.8869                 5.0811

                    13                     14                     15
                     A                      A                      A
 Frequencies --   999.1774              1042.2403              1057.1533
 Red. masses --     1.7025                 4.2100                 1.5648
 Frc consts  --     1.0014                 2.6945                 1.0304
 IR Inten    --     7.9249                87.6487                 1.7010

                    16                     17                     18
                     A                      A                      A
 Frequencies --  1192.4355              1263.9329              1295.7936
 Red. masses --     1.2073                 2.3282                 3.0373
 Frc consts  --     1.0115                 2.1914                 3.0048
 IR Inten    --    19.9364                 0.7777                 1.6239

                    19                     20                     21
                     A                      A                      A
 Frequencies --  1374.6749              1394.4723              1403.5555
 Red. masses --     1.2482                 1.2636                 1.3299
 Frc consts  --     1.3897                 1.4477                 1.5436
 IR Inten    --     7.4371                22.5085                 2.7232

                    22                     23                     24
                     A                      A                      A
 Frequencies --  1423.2971              1470.7315              1473.7033
 Red. masses --     1.2373                 1.0542                 1.0560
 Frc consts  --     1.4768                 1.3435                 1.3512
 IR Inten    --    29.8319                 5.4463                 2.3393

                    25                     26                     27
                     A                      A                      A
 Frequencies --  1487.7237              1491.6773              1496.2130
 Red. masses --     1.0575                 1.0733                 1.0708
 Frc consts  --     1.3790                 1.4070                 1.4124
 IR Inten    --    12.0747                 0.7511                 6.5562

                    28                     29                     30
                     A                      A                      A
 Frequencies --  2931.0531              2936.0831              2954.8299
 Red. masses --     1.0609                 1.0617                 1.0588
 Frc consts  --     5.3700                 5.3922                 5.4464
 IR Inten    --    23.2431                56.8337                68.7865

                    31                     32                     33
                     A                      A                      A
 Frequencies --  2982.3374              3027.5446              3033.9245
 Red. masses --     1.1011                 1.0685                 1.0728
 Frc consts  --     5.7700                 5.7706                 5.8183
 IR Inten    --    57.4040                25.6983                33.2235

                    34                     35                     36
                     A                      A                      A
 Frequencies --  3074.7355              3105.3174              3807.3475
 Red. masses --     1.1008                 1.0961                 1.0661
 Frc consts  --     6.1316                 6.2273                 9.1053
 IR Inten    --    34.2223                12.7352                14.4070

 - Thermochemistry -
 -------------------
 Temperature   298.150 Kelvin.  Pressure   1.00000 Atm.
 Atom  1 has atomic number  6 and mass  12.00000

 Molecular mass:    73.06534 amu.
 Principal axes and moments of inertia in atomic units:
                           1         2         3
     EIGENVALUES --   239.58034 509.01324 685.31840
           X            0.81502  -0.38579  -0.43234
           Y            0.07735   0.81189  -0.57866
           Z            0.57425   0.43818   0.69155
 This molecule is an asymmetric top.
 Rotational symmetry number  1.
 Rotational temperatures (Kelvin)      0.36152     0.17016     0.12638
 Rotational constants (GHZ):           7.53293     3.54557     2.63343
 Zero-point vibrational energy     319779.0 (Joules/Mol)
                                   76.42902 (Kcal/Mol)
 Warning -- explicit consideration of   8 degrees of freedom as
           vibrations may cause significant error
 Vibrational temperatures:    131.84   168.22   216.63   350.26   433.64
          (Kelvin)            513.89   545.54   724.71  1109.23  1314.33
                             1354.27  1400.23  1437.59  1499.55  1521.01
                             1715.65  1818.52  1864.36  1977.85  2006.33
                             2019.40  2047.80  2116.05  2120.33  2140.50
                             2146.19  2152.71  4217.13  4224.36  4251.34
                             4290.91  4355.96  4365.14  4423.85  4467.85
                             5477.92

 Zero-point correction=                           0.121797 (Hartree/Particle)
 Thermal correction to Energy=                    0.128966
 Thermal correction to Enthalpy=                  0.129910
 Thermal correction to Gibbs Free Energy=         0.090658
 Sum of electronic and zero-point Energies=           -232.955568
 Sum of electronic and thermal Energies=              -232.948399
 Sum of electronic and thermal Enthalpies=            -232.947455
 Sum of electronic and thermal Free Energies=         -232.986707

                     E (Thermal)             CV                S
                      KCal/Mol        Cal/Mol-Kelvin    Cal/Mol-Kelvin
 Total                   80.927             23.931             82.613
 Electronic               0.000              0.000              1.377
 Translational            0.889              2.981             38.783
 Rotational               0.889              2.981             25.927
 Vibrational             79.150             17.969             16.525
 Vibration  1             0.602              1.955              3.625
 Vibration  2             0.608              1.935              3.151
 Vibration  3             0.618              1.902              2.665
 Vibration  4             0.659              1.774              1.778
 Vibration  5             0.693              1.671              1.409
 Vibration  6             0.732              1.561              1.134
 Vibration  7             0.749              1.515              1.042
 Vibration  8             0.859              1.242              0.649

 Optimization completed.
    -- Stationary point found.
 Normal termination of Gaussian 03 at Mon Jun 10 10:05:23 2013.
