 Gaussian 03, Revision D.01,
 Gaussian 03:  AM64L-G03RevD.01 13-Oct-2005

 -------------------------------------
 # freq nosymm b3lyp/cbsb7 iop(7/33=1)
 -------------------------------------

 -------------------
 Title Card Required
 -------------------
 Symbolic Z-matrix:
 Charge =  0 Multiplicity = 2

                          Input orientation:
 ---------------------------------------------------------------------
 Center     Atomic     Atomic              Coordinates (Angstroms)
 Number     Number      Type              X           Y           Z
 ---------------------------------------------------------------------
    1          6             0       -1.432172    0.091948   -0.033586
    2          1             0       -2.253320    0.181877   -0.737427
    3          1             0       -0.858279   -0.824017   -0.102917
    4          6             0       -1.479328    0.788987    1.164914
    5          6             0       -0.519864    0.512891    2.277627
    6          1             0        0.063575   -0.392128    2.105120
    7          1             0        0.178684    1.351630    2.398202
    8          1             0       -1.047296    0.412082    3.234232
    9          6             0       -2.236751    2.093121    1.200697
   10          1             0       -3.208017    1.997275    0.699401
   11          1             0       -2.411856    2.427461    2.224415
   12          8             0       -1.451813    3.128368    0.575517
   13          1             0       -1.337500    2.839102   -0.342823
   14          8             0       -0.350969    1.203717   -1.152124
   15          8             0        0.874079    1.479699   -0.537372
   16          1             0        0.677990    2.283358   -0.024752
 ---------------------------------------------------------------------

 SCF Done:  E(UB+HF-LYP) =  -383.446004704     A.U. after   19 cycles

 Alpha  occ. eigenvalues --  -19.17902 -19.17886 -19.12406 -10.22961 -10.20942
 Alpha  occ. eigenvalues --  -10.20596 -10.18120  -1.12706  -1.02825  -0.86188
 Alpha  occ. eigenvalues --   -0.82319  -0.71009  -0.69417  -0.56880  -0.53491
 Alpha  occ. eigenvalues --   -0.50986  -0.47635  -0.47198  -0.45351  -0.43544
 Alpha  occ. eigenvalues --   -0.42386  -0.41725  -0.39606  -0.38491  -0.35554
 Alpha  occ. eigenvalues --   -0.29780  -0.29075  -0.28203  -0.22794
 Alpha virt. eigenvalues --   -0.00087   0.03330   0.04422   0.06264   0.07904
 Alpha virt. eigenvalues --    0.08623   0.09150   0.10529   0.11934   0.13904
 Alpha virt. eigenvalues --    0.15048   0.17571   0.21117   0.26203   0.28619

  Beta  occ. eigenvalues --  -19.17665 -19.16480 -19.12291 -10.23011 -10.21148
  Beta  occ. eigenvalues --  -10.19771 -10.18160  -1.11225  -1.02542  -0.84231
  Beta  occ. eigenvalues --   -0.80803  -0.70829  -0.69346  -0.56219  -0.52925
  Beta  occ. eigenvalues --   -0.50496  -0.47376  -0.46664  -0.43721  -0.42794
  Beta  occ. eigenvalues --   -0.41444  -0.39687  -0.39446  -0.37947  -0.35214
  Beta  occ. eigenvalues --   -0.28810  -0.27156  -0.26726
  Beta virt. eigenvalues --   -0.11484   0.01911   0.03598   0.04766   0.06472
  Beta virt. eigenvalues --    0.07965   0.08980   0.09298   0.10554   0.12143
  Beta virt. eigenvalues --    0.14315   0.15129   0.18403   0.21667   0.26570

 Mulliken atomic charges:
              1
     1  C   -0.062339
     2  H    0.131434
     3  H    0.136686
     4  C   -0.156372
     5  C   -0.253032
     6  H    0.117877
     7  H    0.119481
     8  H    0.122783
     9  C    0.016215
    10  H    0.110104
    11  H    0.114367
    12  O   -0.410609
    13  H    0.238308
    14  O   -0.262300
    15  O   -0.219919
    16  H    0.257318
 Sum of Mulliken charges=   0.00000

 Dipole moment (field-independent basis, Debye):
    X=    -1.5162    Y=    -1.0027    Z=     1.8312  Tot=     2.5803
 Quadrupole moment (field-independent basis, Debye-Ang):
   XX=   -40.4711   YY=   -47.1785   ZZ=   -41.9718
   XY=     0.8745   XZ=     0.8209   YZ=     0.6448

  Exact polarizability:  65.730   3.154  59.181  -7.891  -1.543  72.840
 Approx polarizability:  99.027  10.808  84.006 -16.150  -1.319 112.922

 ******    1 imaginary frequencies (negative Signs) ******

                     1                      2                      3
                     A                      A                      A
 Frequencies --  -517.0573                61.8539               123.4383
 Red. masses --    11.6154                 3.4443                 3.6173
 Frc consts  --     1.8296                 0.0078                 0.0325
 IR Inten    --    72.5669                 8.7736                 2.3773

                     4                      5                      6
                     A                      A                      A
 Frequencies --   136.8059               140.8079               216.6495
 Red. masses --     2.2841                 1.3922                 5.2848
 Frc consts  --     0.0252                 0.0163                 0.1461
 IR Inten    --     7.8298                 3.3565                28.6171

                     7                      8                      9
                     A                      A                      A
 Frequencies --   277.1943               324.6555               393.6323
 Red. masses --     4.5794                 4.2398                 2.2279
 Frc consts  --     0.2073                 0.2633                 0.2034
 IR Inten    --     5.7107                 5.0977                 2.1493

                    10                     11                     12
                     A                      A                      A
 Frequencies --   436.8859               544.9614               578.7265
 Red. masses --     2.0845                 1.1088                 2.1773
 Frc consts  --     0.2344                 0.1940                 0.4296
 IR Inten    --     1.6722               132.9508                30.4626

                    13                     14                     15
                     A                      A                      A
 Frequencies --   642.3052               812.9246               879.1828
 Red. masses --     1.4459                 3.2215                 1.7237
 Frc consts  --     0.3515                 1.2543                 0.7850
 IR Inten    --   133.7957                20.4158                62.9172

                    16                     17                     18
                     A                      A                      A
 Frequencies --   916.5754               961.0615               982.9963
 Red. masses --     2.0828                 1.4446                 2.8218
 Frc consts  --     1.0309                 0.7861                 1.6065
 IR Inten    --    66.1694                20.5440                48.4220

                    19                     20                     21
                     A                      A                      A
 Frequencies --   992.2366              1028.6815              1042.8629
 Red. masses --     1.9757                 1.5628                 1.5737
 Frc consts  --     1.1460                 0.9744                 1.0084
 IR Inten    --    33.8178                 2.7160                 4.5365

                    22                     23                     24
                     A                      A                      A
 Frequencies --  1066.1192              1203.0379              1305.8878
 Red. masses --     1.3575                 1.1291                 2.2962
 Frc consts  --     0.9091                 0.9628                 2.3071
 IR Inten    --     1.2349                 7.5688                 1.5632

                    25                     26                     27
                     A                      A                      A
 Frequencies --  1366.8864              1392.9960              1405.4509
 Red. masses --     1.3242                 1.5079                 1.3880
 Frc consts  --     1.4577                 1.7240                 1.6154
 IR Inten    --     5.3564                18.8167                10.9653

                    28                     29                     30
                     A                      A                      A
 Frequencies --  1428.4393              1462.2741              1468.8116
 Red. masses --     1.1229                 1.1471                 1.0477
 Frc consts  --     1.3500                 1.4451                 1.3318
 IR Inten    --    41.8621                20.7604                11.2199

                    31                     32                     33
                     A                      A                      A
 Frequencies --  1484.1738              1511.4836              1540.4487
 Red. masses --     1.0695                 1.1106                 1.8620
 Frc consts  --     1.3881                 1.4949                 2.6033
 IR Inten    --    16.2563                 3.0651                17.5689

                    34                     35                     36
                     A                      A                      A
 Frequencies --  2995.8957              3006.7028              3035.2579
 Red. masses --     1.0414                 1.0681                 1.0956
 Frc consts  --     5.5069                 5.6892                 5.9469
 IR Inten    --    13.8625                53.5947                13.7826

                    37                     38                     39
                     A                      A                      A
 Frequencies --  3095.0985              3112.4988              3129.1205
 Red. masses --     1.0966                 1.0971                 1.0583
 Frc consts  --     6.1894                 6.2620                 6.1053
 IR Inten    --    29.5871                16.6657                 9.8021

                    40                     41                     42
                     A                      A                      A
 Frequencies --  3219.2817              3648.5237              3703.3564
 Red. masses --     1.1160                 1.0687                 1.0664
 Frc consts  --     6.8145                 8.3822                 8.6168
 IR Inten    --     6.7561                27.8032                45.0996

 - Thermochemistry -
 -------------------
 Temperature   298.150 Kelvin.  Pressure   1.00000 Atm.
 Atom  1 has atomic number  6 and mass  12.00000

 Molecular mass:   105.05517 amu.
 Principal axes and moments of inertia in atomic units:
                           1         2         3
     EIGENVALUES --   615.47688 820.423101003.59756
           X           -0.61228  -0.26848   0.74366
           Y            0.10620   0.90413   0.41385
           Z            0.78348  -0.33237   0.52507
 This molecule is an asymmetric top.
 Rotational symmetry number  1.
 Warning -- assumption of classical behavior for rotation
           may cause significant error
 Rotational temperatures (Kelvin)      0.14073     0.10557     0.08630
 Rotational constants (GHZ):           2.93226     2.19977     1.79827
    1 imaginary frequencies ignored.
 Zero-point vibrational energy     341391.4 (Joules/Mol)
                                   81.59450 (Kcal/Mol)
 Warning -- explicit consideration of  11 degrees of freedom as
           vibrations may cause significant error
 Vibrational temperatures:     88.99   177.60   196.83   202.59   311.71
          (Kelvin)            398.82   467.11   566.35   628.58   784.08
                              832.66   924.13  1169.62  1264.95  1318.75
                             1382.75  1414.31  1427.61  1480.04  1500.45
                             1533.91  1730.90  1878.88  1966.64  2004.21
                             2022.13  2055.20  2103.88  2113.29  2135.39
                             2174.69  2216.36  4310.42  4325.97  4367.05
                             4453.15  4478.19  4502.10  4631.82  5249.41
                             5328.30

 Zero-point correction=                           0.130029 (Hartree/Particle)
 Thermal correction to Energy=                    0.138637
 Thermal correction to Enthalpy=                  0.139581
 Thermal correction to Gibbs Free Energy=         0.096184
 Sum of electronic and zero-point Energies=           -383.315976
 Sum of electronic and thermal Energies=              -383.307368
 Sum of electronic and thermal Enthalpies=            -383.306424
 Sum of electronic and thermal Free Energies=         -383.349821

                     E (Thermal)             CV                S
                      KCal/Mol        Cal/Mol-Kelvin    Cal/Mol-Kelvin
 Total                   86.996             29.886             91.337
 Electronic               0.000              0.000              1.377
 Translational            0.889              2.981             39.865
 Rotational               0.889              2.981             27.718
 Vibrational             85.219             23.925             22.376
 Vibration  1             0.597              1.973              4.397
 Vibration  2             0.610              1.929              3.046
 Vibration  3             0.614              1.917              2.848
 Vibration  4             0.615              1.912              2.793
 Vibration  5             0.645              1.816              1.987
 Vibration  6             0.678              1.716              1.551
 Vibration  7             0.709              1.626              1.287
 Vibration  8             0.761              1.484              0.986
 Vibration  9             0.797              1.390              0.836
 Vibration 10             0.900              1.151              0.555
 Vibration 11             0.935              1.077              0.488

 Optimization completed.
    -- Stationary point found.
 Normal termination of Gaussian 03 at Tue Jun 18 10:29:55 2013.
