 Gaussian 03, Revision D.01,
 Gaussian 03:  AM64L-G03RevD.01 13-Oct-2005

 -------------------------------------
 # freq nosymm b3lyp/cbsb7 iop(7/33=1)
 -------------------------------------

 -------------------
 Title Card Required
 -------------------
 Symbolic Z-matrix:
 Charge =  0 Multiplicity = 2

                          Input orientation:
 ---------------------------------------------------------------------
 Center     Atomic     Atomic              Coordinates (Angstroms)
 Number     Number      Type              X           Y           Z
 ---------------------------------------------------------------------
    1          8             0       -0.013229    0.050939    0.003766
    2          8             0       -0.008992   -0.057740    1.313339
    3          6             0        1.399831   -0.011672    1.832316
    4          1             0        1.676400    1.043848    1.711908
    5          8             0        2.196301   -0.852394    1.091554
    6          1             0        2.091970   -0.594757    0.165098
    7          6             0        1.339778   -0.427446    3.293479
    8          1             0        0.578023    0.215099    3.751003
    9          6             0        2.688493   -0.143809    3.970118
   10          1             0        2.641112   -0.399907    5.031111
   11          1             0        3.482925   -0.736702    3.510987
   12          1             0        2.964843    0.911859    3.893002
   13          6             0        0.910666   -1.892122    3.452846
   14          1             0        0.822883   -2.143222    4.512755
   15          1             0       -0.055749   -2.076466    2.979384
   16          1             0        1.643904   -2.561939    2.999771
 ---------------------------------------------------------------------

 SCF Done:  E(UB+HF-LYP) =  -383.500638095     A.U. after   20 cycles

 Alpha  occ. eigenvalues --  -19.23967 -19.19645 -19.14666 -10.28952 -10.19445
 Alpha  occ. eigenvalues --  -10.17118 -10.16307  -1.20470  -1.06510  -0.87995
 Alpha  occ. eigenvalues --   -0.80578  -0.69718  -0.67864  -0.58617  -0.57525
 Alpha  occ. eigenvalues --   -0.53813  -0.49837  -0.47796  -0.46101  -0.44193
 Alpha  occ. eigenvalues --   -0.41004  -0.39590  -0.39465  -0.36162  -0.35386
 Alpha  occ. eigenvalues --   -0.35014  -0.32419  -0.29135  -0.28546
 Alpha virt. eigenvalues --    0.03119   0.05818   0.06724   0.07206   0.08700
 Alpha virt. eigenvalues --    0.10407   0.11276   0.12672   0.13618   0.14311
 Alpha virt. eigenvalues --    0.15648   0.18141   0.21262   0.22624   0.25131

  Beta  occ. eigenvalues --  -19.22933 -19.17718 -19.14659 -10.28989 -10.19445
  Beta  occ. eigenvalues --  -10.17120 -10.16305  -1.17832  -1.06292  -0.85492
  Beta  occ. eigenvalues --   -0.79539  -0.69704  -0.67127  -0.58570  -0.56840
  Beta  occ. eigenvalues --   -0.52187  -0.48768  -0.45864  -0.44508  -0.41768
  Beta  occ. eigenvalues --   -0.40799  -0.39430  -0.38327  -0.35804  -0.35065
  Beta  occ. eigenvalues --   -0.34979  -0.32025  -0.27117
  Beta virt. eigenvalues --   -0.11924   0.03200   0.06002   0.06804   0.07594
  Beta virt. eigenvalues --    0.08806   0.10468   0.11700   0.12775   0.14234
  Beta virt. eigenvalues --    0.14438   0.15996   0.18405   0.21469   0.22684

 Mulliken atomic charges:
              1
     1  O   -0.172106
     2  O   -0.144165
     3  C    0.253354
     4  H    0.130550
     5  O   -0.357827
     6  H    0.252124
     7  C   -0.236102
     8  H    0.129942
     9  C   -0.274923
    10  H    0.114040
    11  H    0.124125
    12  H    0.104144
    13  C   -0.272143
    14  H    0.107518
    15  H    0.119065
    16  H    0.122404
 Sum of Mulliken charges=   0.00000

 Dipole moment (field-independent basis, Debye):
    X=     1.3658    Y=     0.7416    Z=     1.2740  Tot=     2.0095
 Quadrupole moment (field-independent basis, Debye-Ang):
   XX=   -43.3289   YY=   -43.1649   ZZ=   -36.6204
   XY=     2.0306   XZ=     1.0389   YZ=     1.1484

  Exact polarizability:  54.877   1.066  51.998   6.130  -2.648  67.911
 Approx polarizability:  75.786  -1.781  70.327   3.738  -1.424  92.541

                     1                      2                      3
                     A                      A                      A
 Frequencies --    68.9212                94.6232               196.9344
 Red. masses --     5.5273                 4.2508                 3.0962
 Frc consts  --     0.0155                 0.0224                 0.0708
 IR Inten    --     1.4713                 0.2381                 2.1802

                     4                      5                      6
                     A                      A                      A
 Frequencies --   215.6005               238.5722               275.9487
 Red. masses --     1.0512                 1.3171                 2.4417
 Frc consts  --     0.0288                 0.0442                 0.1095
 IR Inten    --     0.0284                 3.3498                 5.9685

                     7                      8                      9
                     A                      A                      A
 Frequencies --   330.6837               345.4923               441.3599
 Red. masses --     3.0033                 3.1912                 2.8763
 Frc consts  --     0.1935                 0.2244                 0.3301
 IR Inten    --     0.6139                22.8745                21.6083

                    10                     11                     12
                     A                      A                      A
 Frequencies --   461.1230               610.9659               648.4724
 Red. masses --     1.3565                 3.3634                 4.9009
 Frc consts  --     0.1699                 0.7397                 1.2143
 IR Inten    --    93.3589                12.4926                 3.9462

                    13                     14                     15
                     A                      A                      A
 Frequencies --   808.6101               833.5698               939.5782
 Red. masses --     4.2676                 3.4379                 1.3046
 Frc consts  --     1.6440                 1.4074                 0.6786
 IR Inten    --    45.4018                18.9945                 7.0239

                    16                     17                     18
                     A                      A                      A
 Frequencies --   950.1831               975.6769              1065.3234
 Red. masses --     1.7010                 1.5442                 1.7304
 Frc consts  --     0.9048                 0.8661                 1.1570
 IR Inten    --     6.8308                 0.2252                73.7287

                    19                     20                     21
                     A                      A                      A
 Frequencies --  1131.5745              1171.5840              1204.3339
 Red. masses --     2.2320                 2.5779                 3.5069
 Frc consts  --     1.6838                 2.0848                 2.9969
 IR Inten    --     1.7492                 5.4610                 6.5349

                    22                     23                     24
                     A                      A                      A
 Frequencies --  1223.2694              1269.9844              1330.3625
 Red. masses --     2.3619                 1.2756                 1.2257
 Frc consts  --     2.0823                 1.2122                 1.2781
 IR Inten    --    48.8045                79.8601                 6.7595

                    25                     26                     27
                     A                      A                      A
 Frequencies --  1354.1929              1395.0850              1405.1511
 Red. masses --     1.3032                 1.3592                 1.2554
 Frc consts  --     1.4081                 1.5586                 1.4604
 IR Inten    --     4.0296                18.9550                 8.7105

                    28                     29                     30
                     A                      A                      A
 Frequencies --  1420.1515              1469.8893              1491.7100
 Red. masses --     1.2706                 1.5293                 1.0519
 Frc consts  --     1.5098                 1.9468                 1.3791
 IR Inten    --     1.7276                17.0079                 1.7936

                    31                     32                     33
                     A                      A                      A
 Frequencies --  1496.0865              1506.1578              1520.9570
 Red. masses --     1.0508                 1.0448                 1.0980
 Frc consts  --     1.3857                 1.3964                 1.4965
 IR Inten    --     2.3482                10.2758                16.5083

                    34                     35                     36
                     A                      A                      A
 Frequencies --  3009.1807              3026.4724              3030.2910
 Red. masses --     1.0839                 1.0807                 1.0388
 Frc consts  --     5.7830                 5.8322                 5.6201
 IR Inten    --    34.6583                21.4097                34.8769

                    37                     38                     39
                     A                      A                      A
 Frequencies --  3040.2366              3092.4211              3103.1424
 Red. masses --     1.0355                 1.1007                 1.1023
 Frc consts  --     5.6393                 6.2019                 6.2541
 IR Inten    --    13.9948                33.6748                 7.9887

                    40                     41                     42
                     A                      A                      A
 Frequencies --  3106.6655              3115.2638              3764.7385
 Red. masses --     1.1023                 1.1022                 1.0645
 Frc consts  --     6.2680                 6.3021                 8.8889
 IR Inten    --    36.1465                25.8507                67.6099

 - Thermochemistry -
 -------------------
 Temperature   298.150 Kelvin.  Pressure   1.00000 Atm.
 Atom  1 has atomic number  8 and mass  15.99491

 Molecular mass:   105.05517 amu.
 Principal axes and moments of inertia in atomic units:
                           1         2         3
     EIGENVALUES --   391.373141052.505091151.24064
           X            0.45542   0.84688  -0.27456
           Y           -0.18061   0.38987   0.90298
           Z            0.87177  -0.36165   0.33051
 This molecule is an asymmetric top.
 Rotational symmetry number  1.
 Rotational temperatures (Kelvin)      0.22131     0.08229     0.07524
 Rotational constants (GHZ):           4.61131     1.71471     1.56765
 Zero-point vibrational energy     347996.9 (Joules/Mol)
                                   83.17326 (Kcal/Mol)
 Warning -- explicit consideration of  11 degrees of freedom as
           vibrations may cause significant error
 Vibrational temperatures:     99.16   136.14   283.34   310.20   343.25
          (Kelvin)            397.03   475.78   497.09   635.02   663.45
                              879.04   933.01  1163.41  1199.32  1351.84
                             1367.10  1403.78  1532.76  1628.08  1685.65
                             1732.77  1760.01  1827.22  1914.09  1948.38
                             2007.21  2021.70  2043.28  2114.84  2146.24
                             2152.53  2167.02  2188.32  4329.53  4354.41
                             4359.91  4374.22  4449.30  4464.72  4469.79
                             4482.16  5416.61

 Zero-point correction=                           0.132545 (Hartree/Particle)
 Thermal correction to Energy=                    0.140995
 Thermal correction to Enthalpy=                  0.141939
 Thermal correction to Gibbs Free Energy=         0.099100
 Sum of electronic and zero-point Energies=           -383.368093
 Sum of electronic and thermal Energies=              -383.359643
 Sum of electronic and thermal Enthalpies=            -383.358699
 Sum of electronic and thermal Free Energies=         -383.401538

                     E (Thermal)             CV                S
                      KCal/Mol        Cal/Mol-Kelvin    Cal/Mol-Kelvin
 Total                   88.476             29.714             90.163
 Electronic               0.000              0.000              1.377
 Translational            0.889              2.981             39.865
 Rotational               0.889              2.981             27.652
 Vibrational             86.698             23.752             21.268
 Vibration  1             0.598              1.969              4.184
 Vibration  2             0.603              1.953              3.562
 Vibration  3             0.636              1.844              2.162
 Vibration  4             0.645              1.817              1.996
 Vibration  5             0.657              1.782              1.814
 Vibration  6             0.678              1.718              1.559
 Vibration  7             0.713              1.614              1.257
 Vibration  8             0.724              1.584              1.187
 Vibration  9             0.801              1.380              0.822
 Vibration 10             0.819              1.336              0.763
 Vibration 11             0.970              1.009              0.431

 Optimization completed.
    -- Stationary point found.
 Normal termination of Gaussian 03 at Tue Jul 15 22:34:30 2014.
