 Gaussian 03, Revision D.01,
 Gaussian 03:  AM64L-G03RevD.01 13-Oct-2005

 -------------------------------------
 # freq nosymm b3lyp/cbsb7 iop(7/33=1)
 -------------------------------------

 -------------------
 Title Card Required
 -------------------
 Symbolic Z-matrix:
 Charge =  0 Multiplicity = 2

                          Input orientation:
 ---------------------------------------------------------------------
 Center     Atomic     Atomic              Coordinates (Angstroms)
 Number     Number      Type              X           Y           Z
 ---------------------------------------------------------------------
    1          6             0       -0.664484    0.552589    0.133805
    2          1             0       -1.621996    0.056704   -0.062883
    3          1             0        0.139814   -0.188284    0.065379
    4          6             0       -0.682796    1.221705    1.514247
    5          1             0        0.269392    1.745200    1.664834
    6          6             0       -0.853286    0.180938    2.568400
    7          1             0       -1.443879   -0.710251    2.388945
    8          1             0       -0.509377    0.364471    3.578275
    9          6             0       -1.785823    2.319379    1.607692
   10          1             0       -2.745186    1.884258    1.287846
   11          1             0       -1.893183    2.624413    2.650464
   12          8             0       -1.470340    3.491384    0.882197
   13          1             0       -1.305127    3.220592   -0.029793
   14          8             0       -0.459131    1.572884   -0.849279
   15          8             0       -0.618947    0.956325   -2.152714
   16          1             0        0.284740    1.029774   -2.490559
 ---------------------------------------------------------------------

 SCF Done:  E(UB+HF-LYP) =  -383.452441792     A.U. after   15 cycles

 Alpha  occ. eigenvalues --  -19.19211 -19.18330 -19.09948 -10.23188 -10.21646
 Alpha  occ. eigenvalues --  -10.19225 -10.18859  -1.13522  -1.01233  -0.93129
 Alpha  occ. eigenvalues --   -0.80736  -0.67773  -0.67322  -0.59008  -0.54561
 Alpha  occ. eigenvalues --   -0.52312  -0.49351  -0.47011  -0.43951  -0.43077
 Alpha  occ. eigenvalues --   -0.42787  -0.41491  -0.37615  -0.36394  -0.32552
 Alpha  occ. eigenvalues --   -0.32181  -0.28303  -0.27208  -0.21858
 Alpha virt. eigenvalues --   -0.00043   0.03346   0.04628   0.06832   0.08242
 Alpha virt. eigenvalues --    0.09349   0.10822   0.11737   0.13095   0.13778
 Alpha virt. eigenvalues --    0.15908   0.19759   0.20429   0.24011   0.24940

  Beta  occ. eigenvalues --  -19.19203 -19.18322 -19.09902 -10.23159 -10.21494
  Beta  occ. eigenvalues --  -10.19305 -10.17460  -1.13500  -1.01108  -0.93094
  Beta  occ. eigenvalues --   -0.79758  -0.67472  -0.65197  -0.58371  -0.54367
  Beta  occ. eigenvalues --   -0.52117  -0.49212  -0.46750  -0.43735  -0.42653
  Beta  occ. eigenvalues --   -0.42355  -0.41025  -0.37173  -0.35982  -0.32355
  Beta  occ. eigenvalues --   -0.32066  -0.28236  -0.26553
  Beta virt. eigenvalues --   -0.07258   0.00069   0.03371   0.05021   0.06946
  Beta virt. eigenvalues --    0.08372   0.09658   0.10902   0.12000   0.13216
  Beta virt. eigenvalues --    0.13944   0.16122   0.19933   0.20811   0.24843

 Mulliken atomic charges:
              1
     1  C    0.077068
     2  H    0.115029
     3  H    0.106996
     4  C   -0.265876
     5  H    0.134214
     6  C   -0.223688
     7  H    0.115659
     8  H    0.124321
     9  C    0.045741
    10  H    0.086991
    11  H    0.105619
    12  O   -0.396822
    13  H    0.243949
    14  O   -0.291608
    15  O   -0.250067
    16  H    0.272475
 Sum of Mulliken charges=   0.00000

 Dipole moment (field-independent basis, Debye):
    X=     1.3579    Y=    -2.4130    Z=    -0.2167  Tot=     2.7774
 Quadrupole moment (field-independent basis, Debye-Ang):
   XX=   -43.4553   YY=   -55.4553   ZZ=   -39.1804
   XY=     4.9423   XZ=    -3.6545   YZ=    -2.7607

  Exact polarizability:  49.333  -1.677  58.031  -3.252  -1.609  71.776
 Approx polarizability:  69.178   1.254  79.862  -1.175  -0.651  91.483

                     1                      2                      3
                     A                      A                      A
 Frequencies --    95.8439               113.2161               117.1438
 Red. masses --     3.6786                 2.1773                 1.2960
 Frc consts  --     0.0199                 0.0164                 0.0105
 IR Inten    --     3.4938                 6.6536                 4.2004

                     4                      5                      6
                     A                      A                      A
 Frequencies --   172.5184               185.7751               217.4691
 Red. masses --     2.3918                 4.1264                 1.1716
 Frc consts  --     0.0419                 0.0839                 0.0326
 IR Inten    --     4.4333                 0.1574               109.1612

                     7                      8                      9
                     A                      A                      A
 Frequencies --   275.9217               346.9357               381.4693
 Red. masses --     2.7401                 4.6504                 2.3707
 Frc consts  --     0.1229                 0.3298                 0.2033
 IR Inten    --     0.2508                 3.7517                 4.2444

                    10                     11                     12
                     A                      A                      A
 Frequencies --   468.0119               495.9516               538.8698
 Red. masses --     2.5150                 2.3209                 1.5765
 Frc consts  --     0.3246                 0.3363                 0.2697
 IR Inten    --    15.2768                 6.4302               131.5632

                    13                     14                     15
                     A                      A                      A
 Frequencies --   546.4995               844.0056               917.7182
 Red. masses --     1.4958                 2.6813                 1.3411
 Frc consts  --     0.2632                 1.1253                 0.6655
 IR Inten    --    42.4705                 6.7819                 4.0484

                    16                     17                     18
                     A                      A                      A
 Frequencies --   919.7757               931.5454              1019.3357
 Red. masses --     1.5588                 5.3034                 6.5269
 Frc consts  --     0.7770                 2.7115                 3.9957
 IR Inten    --     1.7663                 6.1165                 8.5679

                    19                     20                     21
                     A                      A                      A
 Frequencies --  1065.0342              1075.7497              1118.5251
 Red. masses --     3.9993                 3.7846                 2.6071
 Frc consts  --     2.6728                 2.5804                 1.9218
 IR Inten    --    47.4316                77.7691                35.2806

                    22                     23                     24
                     A                      A                      A
 Frequencies --  1150.8725              1221.1488              1276.2363
 Red. masses --     2.0503                 1.1394                 1.1212
 Frc consts  --     1.6000                 1.0011                 1.0759
 IR Inten    --     2.6170                 8.0736                16.4621

                    25                     26                     27
                     A                      A                      A
 Frequencies --  1281.8091              1342.9107              1369.4183
 Red. masses --     1.2185                 1.2966                 1.1729
 Frc consts  --     1.1795                 1.3777                 1.2959
 IR Inten    --     2.7632                 7.5008                26.6812

                    28                     29                     30
                     A                      A                      A
 Frequencies --  1378.9336              1409.9595              1447.0166
 Red. masses --     1.1784                 1.4241                 1.1887
 Frc consts  --     1.3201                 1.6680                 1.4665
 IR Inten    --    26.0276                 0.8755                58.1582

                    31                     32                     33
                     A                      A                      A
 Frequencies --  1466.2507              1505.6322              1522.3759
 Red. masses --     1.1695                 1.0807                 1.0859
 Frc consts  --     1.4814                 1.4435                 1.4829
 IR Inten    --     9.8877                 2.4505                 7.1128

                    34                     35                     36
                     A                      A                      A
 Frequencies --  2965.2856              3009.3103              3018.2433
 Red. masses --     1.0712                 1.0555                 1.0822
 Frc consts  --     5.5494                 5.6318                 5.8086
 IR Inten    --    53.5542                26.4474                20.4481

                    37                     38                     39
                     A                      A                      A
 Frequencies --  3056.9667              3082.5734              3135.8604
 Red. masses --     1.1094                 1.0928                 1.0511
 Frc consts  --     6.1081                 6.1183                 6.0898
 IR Inten    --    49.8062                36.2646                13.9502

                    40                     41                     42
                     A                      A                      A
 Frequencies --  3240.1607              3765.3555              3775.8782
 Red. masses --     1.1182                 1.0688                 1.0655
 Frc consts  --     6.9170                 8.9277                 8.9506
 IR Inten    --    10.4256                62.2482                86.7269

 - Thermochemistry -
 -------------------
 Temperature   298.150 Kelvin.  Pressure   1.00000 Atm.
 Atom  1 has atomic number  6 and mass  12.00000

 Molecular mass:   105.05517 amu.
 Principal axes and moments of inertia in atomic units:
                           1         2         3
     EIGENVALUES --   520.18186 980.319261409.84270
           X           -0.18472  -0.26464   0.94649
           Y            0.11903   0.94995   0.28884
           Z            0.97556  -0.16601   0.14397
 This molecule is an asymmetric top.
 Rotational symmetry number  1.
 Warning -- assumption of classical behavior for rotation
           may cause significant error
 Rotational temperatures (Kelvin)      0.16651     0.08835     0.06144
 Rotational constants (GHZ):           3.46944     1.84097     1.28010
 Zero-point vibrational energy     342547.8 (Joules/Mol)
                                   81.87088 (Kcal/Mol)
 Warning -- explicit consideration of  13 degrees of freedom as
           vibrations may cause significant error
 Vibrational temperatures:    137.90   162.89   168.54   248.22   267.29
          (Kelvin)            312.89   396.99   499.16   548.85   673.36
                              713.56   775.31   786.29  1214.33  1320.39
                             1323.35  1340.28  1466.60  1532.34  1547.76
                             1609.31  1655.85  1756.96  1836.22  1844.24
                             1932.15  1970.29  1983.98  2028.61  2081.93
                             2109.61  2166.27  2190.36  4266.38  4329.72
                             4342.57  4398.29  4435.13  4511.80  4661.86
                             5417.50  5432.64

 Zero-point correction=                           0.130470 (Hartree/Particle)
 Thermal correction to Energy=                    0.139630
 Thermal correction to Enthalpy=                  0.140574
 Thermal correction to Gibbs Free Energy=         0.096251
 Sum of electronic and zero-point Energies=           -383.321972
 Sum of electronic and thermal Energies=              -383.312812
 Sum of electronic and thermal Enthalpies=            -383.311867
 Sum of electronic and thermal Free Energies=         -383.356191

                     E (Thermal)             CV                S
                      KCal/Mol        Cal/Mol-Kelvin    Cal/Mol-Kelvin
 Total                   87.619             31.789             93.286
 Electronic               0.000              0.000              1.377
 Translational            0.889              2.981             39.865
 Rotational               0.889              2.981             28.066
 Vibrational             85.842             25.827             23.978
 Vibration  1             0.603              1.952              3.537
 Vibration  2             0.607              1.939              3.213
 Vibration  3             0.608              1.935              3.147
 Vibration  4             0.626              1.876              2.408
 Vibration  5             0.632              1.859              2.270
 Vibration  6             0.646              1.814              1.980
 Vibration  7             0.678              1.718              1.559
 Vibration  8             0.725              1.582              1.180
 Vibration  9             0.751              1.510              1.033
 Vibration 10             0.825              1.321              0.743
 Vibration 11             0.852              1.259              0.668
 Vibration 12             0.894              1.164              0.568
 Vibration 13             0.902              1.147              0.551

 Normal termination of Gaussian 03 at Tue Jun 18 10:50:42 2013.
