 Gaussian 03, Revision D.01,
 Gaussian 03:  AM64L-G03RevD.01 13-Oct-2005

 -------------------------------------
 # freq nosymm b3lyp/cbsb7 iop(7/33=1)
 -------------------------------------

 -------------------
 Title Card Required
 -------------------
 Symbolic Z-matrix:
 Charge =  0 Multiplicity = 2

                          Input orientation:
 ---------------------------------------------------------------------
 Center     Atomic     Atomic              Coordinates (Angstroms)
 Number     Number      Type              X           Y           Z
 ---------------------------------------------------------------------
    1          8             0        0.597449    4.602974   -0.505725
    2          1             0        0.965541    5.282355    0.075628
    3          8             0        1.099993    3.407778    0.151531
    4          6             0        1.945382    2.725538   -0.762805
    5          1             0        2.387806    3.444970   -1.472947
    6          8             0        2.526568    1.734011   -0.321873
    7          6             0        0.684081    2.013451   -2.079306
    8          1             0        0.205075    2.968320   -2.292436
    9          6             0        1.533999    1.471392   -3.193563
   10          1             0        2.171486    2.239967   -3.637928
   11          1             0        2.166377    0.653807   -2.841351
   12          1             0        0.889228    1.079334   -3.991156
   13          6             0       -0.186475    1.040178   -1.336475
   14          1             0        0.379730    0.162240   -1.020662
   15          1             0       -0.639087    1.502069   -0.458053
   16          1             0       -0.997978    0.704840   -1.996259
 ---------------------------------------------------------------------

 SCF Done:  E(UB+HF-LYP) =  -383.461186546     A.U. after   19 cycles

 Alpha  occ. eigenvalues --  -19.19426 -19.18792 -19.11483 -10.28917 -10.21793
 Alpha  occ. eigenvalues --  -10.17556 -10.16796  -1.14309  -1.05058  -0.91666
 Alpha  occ. eigenvalues --   -0.80936  -0.70519  -0.63635  -0.58408  -0.55184
 Alpha  occ. eigenvalues --   -0.50366  -0.48726  -0.46507  -0.45076  -0.42208
 Alpha  occ. eigenvalues --   -0.40982  -0.40077  -0.39352  -0.36847  -0.36205
 Alpha  occ. eigenvalues --   -0.34155  -0.30356  -0.28186  -0.23185
 Alpha virt. eigenvalues --   -0.00264   0.03358   0.05122   0.06019   0.07016
 Alpha virt. eigenvalues --    0.09217   0.10122   0.12022   0.12461   0.13997
 Alpha virt. eigenvalues --    0.14873   0.19412   0.20814   0.23182   0.25350

  Beta  occ. eigenvalues --  -19.19339 -19.18798 -19.10429 -10.29021 -10.20882
  Beta  occ. eigenvalues --  -10.17587 -10.16824  -1.14159  -1.03436  -0.91309
  Beta  occ. eigenvalues --   -0.79708  -0.70360  -0.62494  -0.57599  -0.54788
  Beta  occ. eigenvalues --   -0.49954  -0.47107  -0.46035  -0.44087  -0.41837
  Beta  occ. eigenvalues --   -0.40444  -0.39718  -0.37968  -0.36595  -0.35871
  Beta  occ. eigenvalues --   -0.33175  -0.28546  -0.27353
  Beta virt. eigenvalues --   -0.12107  -0.00191   0.03670   0.05247   0.06968
  Beta virt. eigenvalues --    0.08345   0.09409   0.10358   0.12610   0.12881
  Beta virt. eigenvalues --    0.14152   0.14970   0.20023   0.21054   0.23566

 Mulliken atomic charges:
              1
     1  O   -0.266173
     2  H    0.276402
     3  O   -0.218173
     4  C    0.263088
     5  H    0.102994
     6  O   -0.312783
     7  C   -0.229331
     8  H    0.157424
     9  C   -0.259225
    10  H    0.111361
    11  H    0.134954
    12  H    0.119444
    13  C   -0.257718
    14  H    0.128387
    15  H    0.134207
    16  H    0.115143
 Sum of Mulliken charges=   0.00000

 Dipole moment (field-independent basis, Debye):
    X=    -0.7846    Y=     1.7650    Z=    -1.9438  Tot=     2.7403
 Quadrupole moment (field-independent basis, Debye-Ang):
   XX=   -47.0340   YY=   -28.2070   ZZ=   -38.1385
   XY=     4.5597   XZ=    -2.3577   YZ=    -1.9660

  Exact polarizability:  60.383  -0.178  68.243   3.878   6.396  62.198
 Approx polarizability:  89.713 -10.381  96.929  12.420  -0.983  86.963

 ******    1 imaginary frequencies (negative Signs) ******

                     1                      2                      3
                     A                      A                      A
 Frequencies --  -375.6362                63.1892               123.2393
 Red. masses --     7.7781                 3.3304                 4.6198
 Frc consts  --     0.6466                 0.0078                 0.0413
 IR Inten    --    19.8498                 1.2328                 6.0407

                     4                      5                      6
                     A                      A                      A
 Frequencies --   178.7475               193.4535               208.7700
 Red. masses --     1.0510                 1.4206                 1.7635
 Frc consts  --     0.0198                 0.0313                 0.0453
 IR Inten    --     0.1979                 0.4102                34.2338

                     7                      8                      9
                     A                      A                      A
 Frequencies --   223.3132               243.2072               267.3908
 Red. masses --     1.3604                 4.3461                 2.5504
 Frc consts  --     0.0400                 0.1515                 0.1074
 IR Inten    --    79.1959                19.3208                 5.9600

                    10                     11                     12
                     A                      A                      A
 Frequencies --   383.3839               425.8125               466.0655
 Red. masses --     2.6979                 4.4571                 3.7121
 Frc consts  --     0.2336                 0.4761                 0.4751
 IR Inten    --     5.6505                 2.5754                22.0942

                    13                     14                     15
                     A                      A                      A
 Frequencies --   571.2366               860.0427               921.2432
 Red. masses --     9.0564                 2.1650                 1.1644
 Frc consts  --     1.7412                 0.9435                 0.5822
 IR Inten    --     9.7602                10.1207                 5.5933

                    16                     17                     18
                     A                      A                      A
 Frequencies --   928.8691               933.4405               943.4767
 Red. masses --     4.5663                 1.6099                 1.4369
 Frc consts  --     2.3213                 0.8265                 0.7536
 IR Inten    --    12.2035                12.8420                23.8947

                    19                     20                     21
                     A                      A                      A
 Frequencies --   952.8894              1038.3053              1142.4821
 Red. masses --     1.5739                 1.9235                 2.1092
 Frc consts  --     0.8420                 1.2217                 1.6220
 IR Inten    --    58.8841                75.8275                10.7989

                    22                     23                     24
                     A                      A                      A
 Frequencies --  1156.5836              1201.0645              1304.4928
 Red. masses --     1.6312                 1.7369                 1.1302
 Frc consts  --     1.2856                 1.4763                 1.1331
 IR Inten    --    25.8443                 2.8749                 6.7825

                    25                     26                     27
                     A                      A                      A
 Frequencies --  1363.7825              1369.5858              1408.4828
 Red. masses --     1.1550                 1.2539                 1.3807
 Frc consts  --     1.2656                 1.3858                 1.6138
 IR Inten    --    69.4380                13.8299                23.6665

                    28                     29                     30
                     A                      A                      A
 Frequencies --  1410.9089              1469.3359              1482.3256
 Red. masses --     1.2362                 1.0560                 1.0570
 Frc consts  --     1.4499                 1.3433                 1.3683
 IR Inten    --    14.9001                 1.3999                16.1604

                    31                     32                     33
                     A                      A                      A
 Frequencies --  1485.5826              1504.0150              1547.3267
 Red. masses --     1.0610                 1.0652                 6.4121
 Frc consts  --     1.3796                 1.4197                 9.0451
 IR Inten    --     2.8107                12.5906                77.5281

                    34                     35                     36
                     A                      A                      A
 Frequencies --  2937.4868              3002.1602              3007.3388
 Red. masses --     1.0835                 1.0489                 1.0478
 Frc consts  --     5.5084                 5.5699                 5.5834
 IR Inten    --    37.3617                 6.9956                27.9884

                    37                     38                     39
                     A                      A                      A
 Frequencies --  3070.7451              3083.9864              3102.1100
 Red. masses --     1.0869                 1.0818                 1.0964
 Frc consts  --     6.0384                 6.0622                 6.2164
 IR Inten    --    17.9809                 7.3197                 2.7544

                    40                     41                     42
                     A                      A                      A
 Frequencies --  3116.6453              3129.0796              3777.4902
 Red. masses --     1.0969                 1.0989                 1.0687
 Frc consts  --     6.2773                 6.3393                 8.9850
 IR Inten    --     9.9978                19.5539                64.4978

 - Thermochemistry -
 -------------------
 Temperature   298.150 Kelvin.  Pressure   1.00000 Atm.
 Atom  1 has atomic number  8 and mass  15.99491

 Molecular mass:   105.05517 amu.
 Principal axes and moments of inertia in atomic units:
                           1         2         3
     EIGENVALUES --   527.378981002.108441110.24289
           X            0.01435   0.87100  -0.49108
           Y            0.77245  -0.32151  -0.54768
           Z            0.63491   0.37148   0.67741
 This molecule is an asymmetric top.
 Rotational symmetry number  1.
 Warning -- assumption of classical behavior for rotation
           may cause significant error
 Rotational temperatures (Kelvin)      0.16423     0.08643     0.07801
 Rotational constants (GHZ):           3.42210     1.80094     1.62554
    1 imaginary frequencies ignored.
 Zero-point vibrational energy     334948.9 (Joules/Mol)
                                   80.05471 (Kcal/Mol)
 Warning -- explicit consideration of  12 degrees of freedom as
           vibrations may cause significant error
 Vibrational temperatures:     90.91   177.31   257.18   278.34   300.37
          (Kelvin)            321.30   349.92   384.72   551.60   612.65
                              670.56   821.88  1237.41  1325.46  1336.43
                             1343.01  1357.45  1370.99  1493.89  1643.77
                             1664.06  1728.06  1876.87  1962.18  1970.53
                             2026.49  2029.98  2114.04  2132.73  2137.42
                             2163.94  2226.26  4226.38  4319.43  4326.88
                             4418.11  4437.16  4463.24  4484.15  4502.04
                             5434.96

 Zero-point correction=                           0.127575 (Hartree/Particle)
 Thermal correction to Energy=                    0.136596
 Thermal correction to Enthalpy=                  0.137541
 Thermal correction to Gibbs Free Energy=         0.093482
 Sum of electronic and zero-point Energies=           -383.333611
 Sum of electronic and thermal Energies=              -383.324590
 Sum of electronic and thermal Enthalpies=            -383.323646
 Sum of electronic and thermal Free Energies=         -383.367704

                     E (Thermal)             CV                S
                      KCal/Mol        Cal/Mol-Kelvin    Cal/Mol-Kelvin
 Total                   85.715             30.870             92.728
 Electronic               0.000              0.000              1.377
 Translational            0.889              2.981             39.865
 Rotational               0.889              2.981             27.864
 Vibrational             83.938             24.909             23.622
 Vibration  1             0.597              1.972              4.355
 Vibration  2             0.610              1.930              3.049
 Vibration  3             0.629              1.868              2.341
 Vibration  4             0.635              1.849              2.194
 Vibration  5             0.642              1.827              2.054
 Vibration  6             0.649              1.806              1.932
 Vibration  7             0.659              1.774              1.779
 Vibration  8             0.672              1.733              1.613
 Vibration  9             0.753              1.506              1.026
 Vibration 10             0.788              1.414              0.872
 Vibration 11             0.823              1.325              0.749
 Vibration 12             0.927              1.093              0.502

 Normal termination of Gaussian 03 at Wed Jul  9 00:02:09 2014.
