 Gaussian 03, Revision D.01,
 Gaussian 03:  AM64L-G03RevD.01 13-Oct-2005

 -------------------------------------
 # freq nosymm b3lyp/cbsb7 iop(7/33=1)
 -------------------------------------

 -------
 NBO NRT
 -------
 Symbolic Z-matrix:
 Charge =  0 Multiplicity = 2

                          Input orientation:
 ---------------------------------------------------------------------
 Center     Atomic     Atomic              Coordinates (Angstroms)
 Number     Number      Type              X           Y           Z
 ---------------------------------------------------------------------
    1          6             0        1.160300   -0.864100    2.188010
    2          1             0        2.132020   -0.454250    1.890390
    3          1             0        1.134710   -0.883100    3.290430
    4          6             0        0.016970   -0.004970    1.722180
    5          1             0       -0.957840   -0.481760    1.780650
    6          6             0        0.079730    1.458080    2.037510
    7          1             0        0.026060    1.611630    3.125240
    8          1             0       -0.752330    2.010350    1.596960
    9          1             0        1.018730    1.908200    1.701000
   10          6             0        0.009090   -0.069160   -0.457900
   11          1             0        1.081260    0.190610   -0.435120
   12          1             0       -0.688140    0.780690   -0.534480
   13          8             0       -0.365170   -1.211760   -0.757990
   14          8             0        1.080670   -2.228830    1.818520
   15          8             0        1.717520   -2.390000    0.526000
   16          1             0        0.956520   -2.251180   -0.079590
 ---------------------------------------------------------------------

 SCF Done:  E(UB+HF-LYP) =  -383.437476506     A.U. after   18 cycles

 Alpha  occ. eigenvalues --  -19.17140 -19.14894 -19.13100 -10.26322 -10.23915
 Alpha  occ. eigenvalues --  -10.22926 -10.19959  -1.11160  -1.05415  -0.90871
 Alpha  occ. eigenvalues --   -0.81528  -0.70135  -0.65109  -0.60647  -0.53594
 Alpha  occ. eigenvalues --   -0.51037  -0.48687  -0.47231  -0.46225  -0.44390
 Alpha  occ. eigenvalues --   -0.43282  -0.42608  -0.41236  -0.38461  -0.37350
 Alpha  occ. eigenvalues --   -0.28698  -0.28414  -0.26866  -0.24142
 Alpha virt. eigenvalues --   -0.01384   0.02023   0.02663   0.05584   0.06415
 Alpha virt. eigenvalues --    0.07414   0.09842   0.10710   0.11913   0.13520
 Alpha virt. eigenvalues --    0.14528   0.16590   0.19738   0.20710   0.23820

  Beta  occ. eigenvalues --  -19.17131 -19.14891 -19.12225 -10.26445 -10.23954
  Beta  occ. eigenvalues --  -10.21866 -10.19997  -1.11122  -1.03887  -0.90752
  Beta  occ. eigenvalues --   -0.80202  -0.69818  -0.64231  -0.59463  -0.53485
  Beta  occ. eigenvalues --   -0.50591  -0.47944  -0.46903  -0.45436  -0.43576
  Beta  occ. eigenvalues --   -0.42773  -0.42250  -0.39592  -0.37239  -0.36508
  Beta  occ. eigenvalues --   -0.28381  -0.28213  -0.26364
  Beta virt. eigenvalues --   -0.12706   0.01421   0.02283   0.02711   0.05683
  Beta virt. eigenvalues --    0.06650   0.07806   0.10136   0.11017   0.12056
  Beta virt. eigenvalues --    0.13719   0.14618   0.16777   0.20393   0.21028

 Mulliken atomic charges:
              1
     1  C    0.055200
     2  H    0.118907
     3  H    0.128896
     4  C   -0.240353
     5  H    0.161709
     6  C   -0.276993
     7  H    0.132745
     8  H    0.128039
     9  H    0.122595
    10  C    0.047797
    11  H    0.102311
    12  H    0.091660
    13  O   -0.336100
    14  O   -0.232981
    15  O   -0.284590
    16  H    0.281157
 Sum of Mulliken charges=   0.00000

 Dipole moment (field-independent basis, Debye):
    X=    -0.6499    Y=     4.7709    Z=     1.6132  Tot=     5.0780
 Quadrupole moment (field-independent basis, Debye-Ang):
   XX=   -45.9018   YY=   -52.5426   ZZ=   -38.7495
   XY=     4.3270   XZ=    -1.4469   YZ=     3.8011

  Exact polarizability:  52.705  -3.904  65.640   3.513   8.849  74.119
 Approx polarizability:  75.844   0.828  91.725   3.572  15.364 109.251

 ******    1 imaginary frequencies (negative Signs) ******

                     1                      2                      3
                     A                      A                      A
 Frequencies --  -251.8582                99.8268               127.8925
 Red. masses --     7.9002                 3.6163                 2.8862
 Frc consts  --     0.2953                 0.0212                 0.0278
 IR Inten    --    13.6942                 0.6182                 6.1959

                     4                      5                      6
                     A                      A                      A
 Frequencies --   154.7386               180.5671               245.0248
 Red. masses --     1.1719                 3.2406                 2.9028
 Frc consts  --     0.0165                 0.0623                 0.1027
 IR Inten    --     0.2941                 4.4070                 3.2316

                     7                      8                      9
                     A                      A                      A
 Frequencies --   270.8526               305.3282               331.0982
 Red. masses --     4.6296                 2.8348                 4.7910
 Frc consts  --     0.2001                 0.1557                 0.3095
 IR Inten    --    16.1330                11.8446                29.5183

                    10                     11                     12
                     A                      A                      A
 Frequencies --   397.8523               534.1829               639.3824
 Red. masses --     2.9581                 3.6126                 1.1009
 Frc consts  --     0.2759                 0.6074                 0.2652
 IR Inten    --    11.2118                 0.4946                 5.4762

                    13                     14                     15
                     A                      A                      A
 Frequencies --   759.6638               810.1646               855.2973
 Red. masses --     1.0571                 1.1555                 2.1824
 Frc consts  --     0.3594                 0.4469                 0.9406
 IR Inten    --   183.3472                 1.1844                 4.2807

                    16                     17                     18
                     A                      A                      A
 Frequencies --   897.3371               922.9654              1028.5490
 Red. masses --     2.1487                 1.8950                 1.5332
 Frc consts  --     1.0194                 0.9511                 0.9556
 IR Inten    --    10.3952                 0.8719                 2.2037

                    19                     20                     21
                     A                      A                      A
 Frequencies --  1052.6055              1099.5606              1134.8869
 Red. masses --     6.0978                 2.1434                 1.6057
 Frc consts  --     3.9806                 1.5268                 1.2184
 IR Inten    --    21.3882                 6.2774                12.8654

                    22                     23                     24
                     A                      A                      A
 Frequencies --  1149.7363              1244.9236              1277.2442
 Red. masses --     2.0310                 1.3139                 1.1637
 Frc consts  --     1.5818                 1.1998                 1.1185
 IR Inten    --     3.7980                 4.3891                 1.9365

                    25                     26                     27
                     A                      A                      A
 Frequencies --  1315.9183              1399.2808              1409.8225
 Red. masses --     1.2763                 1.3215                 1.3374
 Frc consts  --     1.3022                 1.5245                 1.5662
 IR Inten    --     5.1859                 4.8915                 5.6147

                    28                     29                     30
                     A                      A                      A
 Frequencies --  1435.8047              1462.7251              1482.0500
 Red. masses --     1.0828                 1.6130                 1.0468
 Frc consts  --     1.3152                 2.0334                 1.3547
 IR Inten    --     5.3513                72.9999                11.2956

                    31                     32                     33
                     A                      A                      A
 Frequencies --  1485.9488              1501.3930              1599.3354
 Red. masses --     1.0748                 1.0796                 2.1762
 Frc consts  --     1.3983                 1.4339                 3.2797
 IR Inten    --     5.7575                44.2619                37.6384

                    34                     35                     36
                     A                      A                      A
 Frequencies --  2917.9544              2958.6655              2986.6432
 Red. masses --     1.0420                 1.0664                 1.0527
 Frc consts  --     5.2270                 5.4998                 5.5326
 IR Inten    --    43.1184                16.4184                17.2530

                    37                     38                     39
                     A                      A                      A
 Frequencies --  2991.2483              3041.3064              3055.0524
 Red. masses --     1.1192                 1.0916                 1.0811
 Frc consts  --     5.9001                 5.9490                 5.9451
 IR Inten    --    73.8728                14.0505                17.3335

                    40                     41                     42
                     A                      A                      A
 Frequencies --  3103.9379              3150.6682              3482.2480
 Red. masses --     1.1000                 1.0884                 1.0699
 Frc consts  --     6.2439                 6.3654                 7.6440
 IR Inten    --    15.0872                 9.4554               237.2431

 - Thermochemistry -
 -------------------
 Temperature   298.150 Kelvin.  Pressure   1.00000 Atm.
 Atom  1 has atomic number  6 and mass  12.00000

 Molecular mass:   105.05517 amu.
 Principal axes and moments of inertia in atomic units:
                           1         2         3
     EIGENVALUES --   615.36116 825.191531304.05358
           X           -0.33075   0.41323   0.84843
           Y            0.90183  -0.12648   0.41317
           Z            0.27804   0.90180  -0.33083
 This molecule is an asymmetric top.
 Rotational symmetry number  1.
 Warning -- assumption of classical behavior for rotation
           may cause significant error
 Rotational temperatures (Kelvin)      0.14075     0.10496     0.06642
 Rotational constants (GHZ):           2.93282     2.18706     1.38395
    1 imaginary frequencies ignored.
 Zero-point vibrational energy     336746.9 (Joules/Mol)
                                   80.48444 (Kcal/Mol)
 Warning -- explicit consideration of  10 degrees of freedom as
           vibrations may cause significant error
 Vibrational temperatures:    143.63   184.01   222.63   259.80   352.54
          (Kelvin)            389.70   439.30   476.38   572.42   768.57
                              919.93  1092.99  1165.64  1230.58  1291.07
                             1327.94  1479.85  1514.46  1582.02  1632.85
                             1654.21  1791.17  1837.67  1893.31  2013.25
                             2028.42  2065.80  2104.53  2132.34  2137.95
                             2160.17  2301.08  4198.28  4256.85  4297.11
                             4303.73  4375.76  4395.53  4465.87  4533.10
                             5010.17

 Zero-point correction=                           0.128260 (Hartree/Particle)
 Thermal correction to Energy=                    0.136682
 Thermal correction to Enthalpy=                  0.137627
 Thermal correction to Gibbs Free Energy=         0.094896
 Sum of electronic and zero-point Energies=           -383.309216
 Sum of electronic and thermal Energies=              -383.300794
 Sum of electronic and thermal Enthalpies=            -383.299850
 Sum of electronic and thermal Free Energies=         -383.342581

                     E (Thermal)             CV                S
                      KCal/Mol        Cal/Mol-Kelvin    Cal/Mol-Kelvin
 Total                   85.770             29.458             89.934
 Electronic               0.000              0.000              1.377
 Translational            0.889              2.981             39.865
 Rotational               0.889              2.981             27.984
 Vibrational             83.992             23.496             20.708
 Vibration  1             0.604              1.949              3.458
 Vibration  2             0.611              1.925              2.978
 Vibration  3             0.620              1.897              2.613
 Vibration  4             0.630              1.866              2.323
 Vibration  5             0.660              1.771              1.766
 Vibration  6             0.675              1.727              1.591
 Vibration  7             0.696              1.664              1.388
 Vibration  8             0.713              1.613              1.255
 Vibration  9             0.764              1.475              0.971
 Vibration 10             0.889              1.174              0.578

 Normal termination of Gaussian 03 at Wed Jun 26 12:05:41 2019.
