 Gaussian 03, Revision D.01,
 Gaussian 03:  AM64L-G03RevD.01 13-Oct-2005

 -------------------------------------
 # freq nosymm b3lyp/cbsb7 iop(7/33=1)
 -------------------------------------

 -------------------
 Title Card Required
 -------------------
 Symbolic Z-matrix:
 Charge =  0 Multiplicity = 1

                          Input orientation:
 ---------------------------------------------------------------------
 Center     Atomic     Atomic              Coordinates (Angstroms)
 Number     Number      Type              X           Y           Z
 ---------------------------------------------------------------------
    1          6             0       -1.822602   -0.068957   -1.763769
    2          1             0       -1.820518   -0.302808   -0.676080
    3          6             0       -1.804711   -1.275354   -2.679626
    4          1             0       -2.793912   -1.742609   -2.558723
    5          6             0       -0.733640   -2.278275   -2.219642
    6          1             0       -0.859167   -2.545088   -1.166910
    7          1             0       -0.795260   -3.198326   -2.804814
    8          1             0        0.272279   -1.866733   -2.344162
    9          6             0       -1.648168   -0.867843   -4.150989
   10          1             0       -1.658804   -1.763544   -4.776935
   11          1             0       -0.670733   -0.381839   -4.286318
   12          8             0       -1.839411    1.081807   -2.133945
   13          8             0       -2.703379   -0.042104   -4.607699
   14          1             0       -2.627926    0.781914   -4.110898
 ---------------------------------------------------------------------

 SCF Done:  E(RB+HF-LYP) =  -307.763011588     A.U. after   14 cycles

 Alpha  occ. eigenvalues --  -19.13754 -19.10425 -10.27480 -10.22000 -10.19707
 Alpha  occ. eigenvalues --  -10.18607  -1.07169  -1.01520  -0.81621  -0.69030
 Alpha  occ. eigenvalues --   -0.66211  -0.57562  -0.52462  -0.48665  -0.47158
 Alpha  occ. eigenvalues --   -0.44632  -0.42926  -0.41375  -0.40256  -0.39218
 Alpha  occ. eigenvalues --   -0.36566  -0.33597  -0.27628  -0.26588
 Alpha virt. eigenvalues --   -0.04603   0.03579   0.06359   0.06664   0.07740
 Alpha virt. eigenvalues --    0.09524   0.11270   0.11906   0.13967   0.19065
 Alpha virt. eigenvalues --    0.19095   0.19893   0.23823   0.26356   0.28546

 Mulliken atomic charges:
              1
     1  C    0.207952
     2  H    0.085239
     3  C   -0.276407
     4  H    0.142821
     5  C   -0.295673
     6  H    0.115624
     7  H    0.124148
     8  H    0.117815
     9  C    0.035889
    10  H    0.107243
    11  H    0.094512
    12  O   -0.300024
    13  O   -0.399462
    14  H    0.240323
 Sum of Mulliken charges=   0.00000

 Dipole moment (field-independent basis, Debye):
    X=     1.1617    Y=    -2.2924    Z=     1.7273  Tot=     3.0965
 Quadrupole moment (field-independent basis, Debye-Ang):
   XX=   -41.7956   YY=   -35.7772   ZZ=   -49.2272
   XY=     3.1122   XZ=    -9.1611   YZ=     4.5509

  Exact polarizability:  43.744  -4.111  56.335   1.513  -2.215  53.400
 Approx polarizability:  62.175  -2.244  83.263   1.692  -4.130  69.445

                     1                      2                      3
                     A                      A                      A
 Frequencies --   108.7053               151.1409               199.7500
 Red. masses --     2.8445                 2.7000                 1.0962
 Frc consts  --     0.0198                 0.0363                 0.0258
 IR Inten    --     4.4400                 6.8216                 0.7446

                     4                      5                      6
                     A                      A                      A
 Frequencies --   231.3682               306.2843               350.2775
 Red. masses --     3.9496                 2.7106                 2.6064
 Frc consts  --     0.1246                 0.1498                 0.1884
 IR Inten    --     1.8410                 8.8826                 6.5334

                     7                      8                      9
                     A                      A                      A
 Frequencies --   462.7683               562.4455               627.9969
 Red. masses --     3.1072                 1.1100                 3.5642
 Frc consts  --     0.3921                 0.2069                 0.8282
 IR Inten    --     0.7914               142.4125                 4.5899

                    10                     11                     12
                     A                      A                      A
 Frequencies --   816.0820               914.4721               932.9434
 Red. masses --     2.7089                 1.2814                 1.6833
 Frc consts  --     1.0630                 0.6313                 0.8632
 IR Inten    --    13.0670                 1.9138                25.9574

                    13                     14                     15
                     A                      A                      A
 Frequencies --   934.2032              1059.0522              1081.7486
 Red. masses --     1.3601                 3.8252                 2.7795
 Frc consts  --     0.6994                 2.5278                 1.9163
 IR Inten    --     7.4741                10.2098               107.3682

                    16                     17                     18
                     A                      A                      A
 Frequencies --  1131.0052              1166.6673              1226.8915
 Red. masses --     2.1717                 1.6748                 1.2612
 Frc consts  --     1.6368                 1.3431                 1.1186
 IR Inten    --     0.3909                 4.2299                24.2038

                    19                     20                     21
                     A                      A                      A
 Frequencies --  1282.1746              1355.0022              1386.9560
 Red. masses --     1.3848                 1.6469                 1.2187
 Frc consts  --     1.3414                 1.7816                 1.3813
 IR Inten    --     2.1260                 9.9879                 1.7670

                    22                     23                     24
                     A                      A                      A
 Frequencies --  1406.8841              1422.0696              1443.0390
 Red. masses --     1.2292                 1.2150                 1.2280
 Frc consts  --     1.4335                 1.4476                 1.5066
 IR Inten    --     2.0159                21.3625                55.1311

                    25                     26                     27
                     A                      A                      A
 Frequencies --  1499.6628              1500.9634              1507.8807
 Red. masses --     1.0477                 1.0709                 1.0637
 Frc consts  --     1.3883                 1.4214                 1.4249
 IR Inten    --    10.4540                 0.8727                 8.6600

                    28                     29                     30
                     A                      A                      A
 Frequencies --  1791.8350              2871.9490              2977.4799
 Red. masses --    10.3434                 1.0835                 1.0719
 Frc consts  --    19.5663                 5.2655                 5.5989
 IR Inten    --   164.9548               127.8790                25.9641

                    31                     32                     33
                     A                      A                      A
 Frequencies --  2992.5133              3029.2364              3073.3363
 Red. masses --     1.0787                 1.0355                 1.0940
 Frc consts  --     5.6914                 5.5987                 6.0884
 IR Inten    --    38.1010                24.9371                28.3256

                    34                     35                     36
                     A                      A                      A
 Frequencies --  3091.0225              3102.2881              3786.1915
 Red. masses --     1.1018                 1.1017                 1.0654
 Frc consts  --     6.2026                 6.2470                 8.9985
 IR Inten    --    28.4325                24.5519                63.5246

 - Thermochemistry -
 -------------------
 Temperature   298.150 Kelvin.  Pressure   1.00000 Atm.
 Atom  1 has atomic number  6 and mass  12.00000

 Molecular mass:    88.05243 amu.
 Principal axes and moments of inertia in atomic units:
                           1         2         3
     EIGENVALUES --   429.24827 534.00114 880.81066
           X           -0.44093  -0.01687   0.89738
           Y            0.66896   0.66041   0.34111
           Z           -0.59840   0.75072  -0.27991
 This molecule is an asymmetric top.
 Rotational symmetry number  1.
 Rotational temperatures (Kelvin)      0.20178     0.16220     0.09833
 Rotational constants (GHZ):           4.20442     3.37966     2.04895
 Zero-point vibrational energy     309738.8 (Joules/Mol)
                                   74.02935 (Kcal/Mol)
 Warning -- explicit consideration of   8 degrees of freedom as
           vibrations may cause significant error
 Vibrational temperatures:    156.40   217.46   287.40   332.89   440.67
          (Kelvin)            503.97   665.82   809.23   903.55  1174.16
                             1315.72  1342.30  1344.11  1523.74  1556.39
                             1627.26  1678.57  1765.22  1844.76  1949.54
                             1995.52  2024.19  2046.04  2076.21  2157.68
                             2159.55  2169.50  2578.05  4132.09  4283.92
                             4305.55  4358.39  4421.84  4447.29  4463.50
                             5447.48

 Zero-point correction=                           0.117973 (Hartree/Particle)
 Thermal correction to Energy=                    0.124991
 Thermal correction to Enthalpy=                  0.125935
 Thermal correction to Gibbs Free Energy=         0.087291
 Sum of electronic and zero-point Energies=           -307.645038
 Sum of electronic and thermal Energies=              -307.638021
 Sum of electronic and thermal Enthalpies=            -307.637077
 Sum of electronic and thermal Free Energies=         -307.675720

                     E (Thermal)             CV                S
                      KCal/Mol        Cal/Mol-Kelvin    Cal/Mol-Kelvin
 Total                   78.433             24.327             81.332
 Electronic               0.000              0.000              0.000
 Translational            0.889              2.981             39.339
 Rotational               0.889              2.981             26.804
 Vibrational             76.655             18.365             15.190
 Vibration  1             0.606              1.942              3.292
 Vibration  2             0.619              1.901              2.658
 Vibration  3             0.638              1.840              2.135
 Vibration  4             0.653              1.793              1.868
 Vibration  5             0.697              1.662              1.382
 Vibration  6             0.727              1.575              1.165
 Vibration  7             0.820              1.333              0.758
 Vibration  8             0.918              1.113              0.519

 Optimization completed.
    -- Stationary point found.
 Normal termination of Gaussian 03 at Thu May 14 20:54:59 2015.
