 Gaussian 03, Revision D.01,
 Gaussian 03:  AM64L-G03RevD.01 13-Oct-2005

 -------------------------------------
 # freq nosymm b3lyp/cbsb7 iop(7/33=1)
 -------------------------------------

 -------
 NBO NRT
 -------
 Symbolic Z-matrix:
 Charge =  0 Multiplicity = 2

                          Input orientation:
 ---------------------------------------------------------------------
 Center     Atomic     Atomic              Coordinates (Angstroms)
 Number     Number      Type              X           Y           Z
 ---------------------------------------------------------------------
    1          8             0        1.143180   -1.640420   -1.496720
    2          1             0        1.985180   -0.923670   -0.700640
    3          6             0        1.792590    0.187200   -0.152460
    4          6             0        0.260980    0.018740   -0.007340
    5          6             0       -0.000850   -1.343420   -0.712660
    6          1             0        2.382680    0.329830    0.753900
    7          8             0        2.249170    1.121060   -1.054990
    8          6             0       -0.222210    0.073170    1.439400
    9          1             0       -0.195760    0.829470   -0.580240
   10          1             0       -0.172830   -2.132760    0.031810
   11          1             0       -0.874810   -1.294790   -1.372240
   12          8             0        1.556460    0.982850   -2.315200
   13          1             0        1.465940    0.001130   -2.392370
   14          1             0       -0.021150    1.049610    1.888260
   15          1             0        0.265100   -0.692510    2.051190
   16          1             0       -1.301090   -0.098860    1.494460
 ---------------------------------------------------------------------

 SCF Done:  E(UB+HF-LYP) =  -383.426738123     A.U. after   22 cycles

 Alpha  occ. eigenvalues --  -19.22384 -19.18266 -19.13698 -10.25695 -10.22331
 Alpha  occ. eigenvalues --  -10.20214 -10.18246  -1.15963  -1.01445  -0.94357
 Alpha  occ. eigenvalues --   -0.81111  -0.70435  -0.68072  -0.60063  -0.55618
 Alpha  occ. eigenvalues --   -0.53759  -0.49036  -0.46739  -0.44906  -0.44671
 Alpha  occ. eigenvalues --   -0.43137  -0.41413  -0.39062  -0.37208  -0.36627
 Alpha  occ. eigenvalues --   -0.34091  -0.30849  -0.28434  -0.24953
 Alpha virt. eigenvalues --   -0.00506   0.03709   0.05650   0.06991   0.07609
 Alpha virt. eigenvalues --    0.09702   0.10393   0.10539   0.12518   0.13863
 Alpha virt. eigenvalues --    0.15041   0.18563   0.20324   0.21392   0.24969

  Beta  occ. eigenvalues --  -19.21833 -19.18202 -19.12297 -10.25128 -10.22368
  Beta  occ. eigenvalues --  -10.20157 -10.18248  -1.15229  -0.98631  -0.93786
  Beta  occ. eigenvalues --   -0.80538  -0.69372  -0.67514  -0.59534  -0.54748
  Beta  occ. eigenvalues --   -0.52034  -0.48286  -0.46025  -0.44197  -0.44040
  Beta  occ. eigenvalues --   -0.42472  -0.40399  -0.38005  -0.36907  -0.35800
  Beta  occ. eigenvalues --   -0.32805  -0.27716  -0.27339
  Beta virt. eigenvalues --   -0.13996  -0.00079   0.03802   0.05804   0.07207
  Beta virt. eigenvalues --    0.07683   0.10021   0.10555   0.10761   0.12616
  Beta virt. eigenvalues --    0.14175   0.16139   0.19090   0.20701   0.21826

 Mulliken atomic charges:
              1
     1  O   -0.411042
     2  H    0.188603
     3  C   -0.030420
     4  C   -0.276922
     5  C    0.045410
     6  H    0.147644
     7  O   -0.148342
     8  C   -0.283544
     9  H    0.161718
    10  H    0.101842
    11  H    0.116550
    12  O   -0.236204
    13  H    0.272517
    14  H    0.121111
    15  H    0.110739
    16  H    0.120341
 Sum of Mulliken charges=   0.00000

 Dipole moment (field-independent basis, Debye):
    X=    -1.4676    Y=    -0.3263    Z=     2.6540  Tot=     3.0503
 Quadrupole moment (field-independent basis, Debye-Ang):
   XX=   -44.7628   YY=   -49.0951   ZZ=   -46.4928
   XY=    -0.5869   XZ=     5.6122   YZ=     0.9710

  Exact polarizability:  58.990  10.802  66.897  -1.899   0.897  65.889
 Approx polarizability:  84.444  17.200 110.901   5.393   4.903  95.254

 ******    1 imaginary frequencies (negative Signs) ******

                     1                      2                      3
                     A                      A                      A
 Frequencies -- -1377.5333                76.3167               170.9492
 Red. masses --     1.1061                 2.7078                 5.1419
 Frc consts  --     1.2366                 0.0093                 0.0885
 IR Inten    --   244.5602                 0.5936                15.4071

                     4                      5                      6
                     A                      A                      A
 Frequencies --   199.7609               236.6958               289.4682
 Red. masses --     4.9016                 1.1314                 2.8267
 Frc consts  --     0.1152                 0.0373                 0.1396
 IR Inten    --     3.6148                 0.2356                 0.4125

                     7                      8                      9
                     A                      A                      A
 Frequencies --   351.1167               401.0618               545.6603
 Red. masses --     3.4342                 3.0556                 5.6300
 Frc consts  --     0.2494                 0.2896                 0.9877
 IR Inten    --     5.9236                 2.9814                11.7336

                    10                     11                     12
                     A                      A                      A
 Frequencies --   596.9756               651.7972               693.9996
 Red. masses --     2.2105                 1.6121                 2.4587
 Frc consts  --     0.4641                 0.4035                 0.6977
 IR Inten    --    19.0999                92.1855                51.6062

                    13                     14                     15
                     A                      A                      A
 Frequencies --   835.8394               874.8689               909.8177
 Red. masses --     3.8490                 3.1796                 2.0394
 Frc consts  --     1.5843                 1.4339                 0.9946
 IR Inten    --    13.7822                24.2241                 9.7506

                    16                     17                     18
                     A                      A                      A
 Frequencies --   948.6137               999.3373              1015.5325
 Red. masses --     1.2332                 1.9669                 3.6973
 Frc consts  --     0.6538                 1.1573                 2.2466
 IR Inten    --     3.4314                26.9660                37.2928

                    19                     20                     21
                     A                      A                      A
 Frequencies --  1075.3989              1130.2216              1145.9891
 Red. masses --     2.2701                 3.7379                 1.8871
 Frc consts  --     1.5468                 2.8132                 1.4602
 IR Inten    --     4.6921                16.9922                 1.2419

                    22                     23                     24
                     A                      A                      A
 Frequencies --  1159.9209              1209.3344              1289.9822
 Red. masses --     2.1224                 1.1934                 1.2859
 Frc consts  --     1.6824                 1.0283                 1.2607
 IR Inten    --     4.6722                 0.2997                 9.1443

                    25                     26                     27
                     A                      A                      A
 Frequencies --  1311.8371              1341.8102              1362.6441
 Red. masses --     1.2500                 1.2222                 1.2474
 Frc consts  --     1.2675                 1.2965                 1.3646
 IR Inten    --    15.4446                 8.9244                10.4692

                    28                     29                     30
                     A                      A                      A
 Frequencies --  1405.5807              1415.5212              1496.6359
 Red. masses --     1.2930                 1.2203                 1.0508
 Frc consts  --     1.5051                 1.4407                 1.3868
 IR Inten    --     3.6961                 6.4007                 6.2247

                    31                     32                     33
                     A                      A                      A
 Frequencies --  1499.0562              1514.3038              1556.0106
 Red. masses --     1.0420                 1.0843                 1.1124
 Frc consts  --     1.3796                 1.4650                 1.5869
 IR Inten    --     8.2623                 1.8427                52.8011

                    34                     35                     36
                     A                      A                      A
 Frequencies --  1750.3023              2983.3850              3021.8852
 Red. masses --     1.0513                 1.0620                 1.0357
 Frc consts  --     1.8977                 5.5690                 5.5723
 IR Inten    --    21.4321                74.3608                22.2507

                    37                     38                     39
                     A                      A                      A
 Frequencies --  3033.5048              3065.1985              3086.2750
 Red. masses --     1.0996                 1.0885                 1.0996
 Frc consts  --     5.9615                 6.0254                 6.1711
 IR Inten    --    21.7680                 2.2153                22.4845

                    40                     41                     42
                     A                      A                      A
 Frequencies --  3092.4826              3108.9220              3362.1909
 Red. masses --     1.1007                 1.0862                 1.0699
 Frc consts  --     6.2020                 6.1856                 7.1258
 IR Inten    --    27.4048                 9.7255                32.0439

 - Thermochemistry -
 -------------------
 Temperature   298.150 Kelvin.  Pressure   1.00000 Atm.
 Atom  1 has atomic number  8 and mass  15.99491

 Molecular mass:   105.05517 amu.
 Principal axes and moments of inertia in atomic units:
                           1         2         3
     EIGENVALUES --   518.33571 818.128831117.81736
           X           -0.58721   0.16204   0.79305
           Y           -0.36566   0.82098  -0.43850
           Z            0.72214   0.54748   0.42284
 This molecule is an asymmetric top.
 Rotational symmetry number  1.
 Warning -- assumption of classical behavior for rotation
           may cause significant error
 Rotational temperatures (Kelvin)      0.16710     0.10587     0.07748
 Rotational constants (GHZ):           3.48180     2.20594     1.61452
    1 imaginary frequencies ignored.
 Zero-point vibrational energy     336247.6 (Joules/Mol)
                                   80.36510 (Kcal/Mol)
 Warning -- explicit consideration of   9 degrees of freedom as
           vibrations may cause significant error
 Vibrational temperatures:    109.80   245.96   287.41   340.55   416.48
          (Kelvin)            505.18   577.04   785.08   858.91   937.79
                              998.51  1202.58  1258.74  1309.02  1364.84
                             1437.82  1461.12  1547.26  1626.13  1648.82
                             1668.87  1739.96  1855.99  1887.44  1930.56
                             1960.54  2022.31  2036.62  2153.32  2156.80
                             2178.74  2238.75  2518.29  4292.42  4347.81
                             4364.53  4410.13  4440.46  4449.39  4473.04
                             4837.44

 Zero-point correction=                           0.128070 (Hartree/Particle)
 Thermal correction to Energy=                    0.135540
 Thermal correction to Enthalpy=                  0.136484
 Thermal correction to Gibbs Free Energy=         0.095735
 Sum of electronic and zero-point Energies=           -383.298668
 Sum of electronic and thermal Energies=              -383.291198
 Sum of electronic and thermal Enthalpies=            -383.290254
 Sum of electronic and thermal Free Energies=         -383.331003

                     E (Thermal)             CV                S
                      KCal/Mol        Cal/Mol-Kelvin    Cal/Mol-Kelvin
 Total                   85.053             27.202             85.763
 Electronic               0.000              0.000              1.377
 Translational            0.889              2.981             39.865
 Rotational               0.889              2.981             27.652
 Vibrational             83.275             21.240             16.869
 Vibration  1             0.599              1.965              3.983
 Vibration  2             0.626              1.878              2.425
 Vibration  3             0.638              1.840              2.135
 Vibration  4             0.656              1.785              1.828
 Vibration  5             0.686              1.693              1.477
 Vibration  6             0.728              1.573              1.161
 Vibration  7             0.767              1.468              0.959
 Vibration  8             0.901              1.149              0.553
 Vibration  9             0.955              1.038              0.455

 Optimization completed.
    -- Stationary point found.
 Normal termination of Gaussian 03 at Tue Jul 23 11:25:12 2019.
