 Gaussian 03, Revision D.01,
 Gaussian 03:  AM64L-G03RevD.01 13-Oct-2005

 -------------------------------------
 # freq nosymm b3lyp/cbsb7 iop(7/33=1)
 -------------------------------------

 -------------------
 Title Card Required
 -------------------
 Symbolic Z-matrix:
 Charge =  0 Multiplicity = 2

                          Input orientation:
 ---------------------------------------------------------------------
 Center     Atomic     Atomic              Coordinates (Angstroms)
 Number     Number      Type              X           Y           Z
 ---------------------------------------------------------------------
    1          6             0       -0.780559   -2.061838    0.590249
    2          6             0       -2.083993   -1.371468    0.413755
    3          1             0       -1.997632   -0.311002    0.640508
    4          1             0       -2.473728   -1.507205   -0.601176
    5          1             0       -2.827177   -1.809356    1.095534
    6          6             0       -0.632028   -3.496869    0.229437
    7          1             0       -0.997170   -3.693394   -0.784298
    8          1             0        0.403640   -3.830807    0.298341
    9          1             0       -1.239488   -4.116282    0.905364
   10          6             0        0.404633   -1.297188    1.059375
   11          1             0        1.183172   -1.915136    1.530068
   12          8             0        0.723009   -0.979819   -0.252026
   13          8             0        0.101188   -0.182429    1.842631
   14          1             0        0.815522    0.439556    1.635435
   15          8             0        2.097474    0.086539   -0.096451
   16          1             0        1.816816    0.638138   -0.839572
 ---------------------------------------------------------------------

 SCF Done:  E(UB+HF-LYP) =  -383.469488922     A.U. after   22 cycles

 Alpha  occ. eigenvalues --  -19.15427 -19.13232 -19.11502 -10.27219 -10.23435
 Alpha  occ. eigenvalues --  -10.18773 -10.17974  -1.07236  -1.00205  -0.94059
 Alpha  occ. eigenvalues --   -0.81908  -0.72070  -0.67097  -0.56458  -0.52563
 Alpha  occ. eigenvalues --   -0.49851  -0.47501  -0.45850  -0.44131  -0.42007
 Alpha  occ. eigenvalues --   -0.41291  -0.40923  -0.38370  -0.36446  -0.36074
 Alpha  occ. eigenvalues --   -0.31460  -0.28845  -0.26772  -0.21677
 Alpha virt. eigenvalues --   -0.06327   0.03508   0.05683   0.07396   0.08563
 Alpha virt. eigenvalues --    0.09396   0.10636   0.10931   0.12918   0.14894
 Alpha virt. eigenvalues --    0.16530   0.19668   0.21974   0.25384   0.25974

  Beta  occ. eigenvalues --  -19.15554 -19.11929 -19.11489 -10.27284 -10.22502
  Beta  occ. eigenvalues --  -10.18828 -10.18028  -1.07028  -0.99522  -0.91899
  Beta  occ. eigenvalues --   -0.80697  -0.71888  -0.66755  -0.55611  -0.52410
  Beta  occ. eigenvalues --   -0.49132  -0.47235  -0.44799  -0.43198  -0.41680
  Beta  occ. eigenvalues --   -0.40762  -0.40376  -0.38125  -0.36037  -0.34234
  Beta  occ. eigenvalues --   -0.30900  -0.28369  -0.26091
  Beta virt. eigenvalues --   -0.10508  -0.02007   0.03612   0.05977   0.07433
  Beta virt. eigenvalues --    0.08731   0.09640   0.10813   0.11039   0.13133
  Beta virt. eigenvalues --    0.14942   0.17515   0.20095   0.22169   0.25548

 Mulliken atomic charges:
              1
     1  C   -0.162455
     2  C   -0.233510
     3  H    0.137208
     4  H    0.122575
     5  H    0.122305
     6  C   -0.232457
     7  H    0.129704
     8  H    0.126174
     9  H    0.126135
    10  C    0.350007
    11  H    0.101763
    12  O   -0.316874
    13  O   -0.401611
    14  H    0.242921
    15  O   -0.364772
    16  H    0.252887
 Sum of Mulliken charges=   0.00000

 Dipole moment (field-independent basis, Debye):
    X=    -2.0102    Y=    -1.2538    Z=    -0.5485  Tot=     2.4319
 Quadrupole moment (field-independent basis, Debye-Ang):
   XX=   -44.0014   YY=   -33.3148   ZZ=   -44.4915
   XY=     4.9887   XZ=     0.5420   YZ=    -2.7275

  Exact polarizability:  90.509  28.244  79.672  -5.722  -4.225  51.096
 Approx polarizability: 138.389  49.427 111.354 -14.666 -10.829  77.158

 ******    1 imaginary frequencies (negative Signs) ******

                     1                      2                      3
                     A                      A                      A
 Frequencies --  -561.7735                88.6605                92.2450
 Red. masses --    11.7361                 1.5481                 1.6223
 Frc consts  --     2.1822                 0.0072                 0.0081
 IR Inten    --   364.6056                 0.0863                 0.9062

                     4                      5                      6
                     A                      A                      A
 Frequencies --   107.9735               156.2023               188.7662
 Red. masses --     1.1785                 4.5784                 3.2098
 Frc consts  --     0.0081                 0.0658                 0.0674
 IR Inten    --     1.3038                 2.7070                 7.7421

                     7                      8                      9
                     A                      A                      A
 Frequencies --   244.7991               260.2238               306.6240
 Red. masses --     1.1833                 3.6483                 3.6820
 Frc consts  --     0.0418                 0.1456                 0.2040
 IR Inten    --   126.3678                 1.1400                15.3590

                    10                     11                     12
                     A                      A                      A
 Frequencies --   354.2612               430.7555               464.6314
 Red. masses --     2.6448                 3.5948                 1.8726
 Frc consts  --     0.1956                 0.3930                 0.2382
 IR Inten    --     0.6416                 9.7123                32.3592

                    13                     14                     15
                     A                      A                      A
 Frequencies --   526.7219               637.2182               791.2167
 Red. masses --     1.5481                 6.1661                 3.4143
 Frc consts  --     0.2531                 1.4752                 1.2593
 IR Inten    --    57.6733                14.6222                14.7646

                    16                     17                     18
                     A                      A                      A
 Frequencies --   933.1111               945.7298               976.7320
 Red. masses --     1.2666                 1.3998                 1.3199
 Frc consts  --     0.6498                 0.7377                 0.7419
 IR Inten    --     1.5799                68.5757                 2.0912

                    19                     20                     21
                     A                      A                      A
 Frequencies --   986.8839              1046.2125              1070.0299
 Red. masses --     1.6594                 1.5667                 3.4567
 Frc consts  --     0.9522                 1.0104                 2.3319
 IR Inten    --    35.8654                 3.1833                45.7434

                    22                     23                     24
                     A                      A                      A
 Frequencies --  1123.8117              1211.7654              1304.9500
 Red. masses --     4.1470                 1.4228                 1.9637
 Frc consts  --     3.0858                 1.2309                 1.9702
 IR Inten    --   150.3075                59.2964                41.2891

                    25                     26                     27
                     A                      A                      A
 Frequencies --  1314.4611              1364.1036              1400.1068
 Red. masses --     1.9353                 1.1748                 1.3944
 Frc consts  --     1.9701                 1.2880                 1.6105
 IR Inten    --    12.6583                35.8922                13.2589

                    28                     29                     30
                     A                      A                      A
 Frequencies --  1408.0686              1450.3136              1459.1333
 Red. masses --     1.2789                 1.5270                 1.0423
 Frc consts  --     1.4939                 1.8924                 1.3075
 IR Inten    --     5.4370                 9.7939                 4.2088

                    31                     32                     33
                     A                      A                      A
 Frequencies --  1467.0744              1483.3391              1500.7876
 Red. masses --     1.0745                 1.0750                 1.2137
 Frc consts  --     1.3626                 1.3936                 1.6107
 IR Inten    --     2.2634                24.5129                 4.5634

                    34                     35                     36
                     A                      A                      A
 Frequencies --  2979.1851              2986.6107              2993.5177
 Red. masses --     1.0828                 1.0500                 1.0509
 Frc consts  --     5.6621                 5.5181                 5.5483
 IR Inten    --    73.0572                 7.2626                34.0621

                    37                     38                     39
                     A                      A                      A
 Frequencies --  3041.5247              3046.1399              3118.0080
 Red. masses --     1.0880                 1.0855                 1.0977
 Frc consts  --     5.9301                 5.9343                 6.2876
 IR Inten    --     8.3847                20.9796                11.4468

                    40                     41                     42
                     A                      A                      A
 Frequencies --  3147.3384              3728.7977              3801.1951
 Red. masses --     1.0953                 1.0642                 1.0678
 Frc consts  --     6.3926                 8.7179                 9.0907
 IR Inten    --     2.6778                40.8831                67.2863

 - Thermochemistry -
 -------------------
 Temperature   298.150 Kelvin.  Pressure   1.00000 Atm.
 Atom  1 has atomic number  6 and mass  12.00000

 Molecular mass:   105.05517 amu.
 Principal axes and moments of inertia in atomic units:
                           1         2         3
     EIGENVALUES --   453.117151017.136681194.36795
           X            0.75889  -0.51381   0.40012
           Y            0.65063   0.62451  -0.43206
           Z           -0.02788   0.58821   0.80823
 This molecule is an asymmetric top.
 Rotational symmetry number  1.
 Warning -- assumption of classical behavior for rotation
           may cause significant error
 Rotational temperatures (Kelvin)      0.19115     0.08515     0.07252
 Rotational constants (GHZ):           3.98295     1.77433     1.51104
    1 imaginary frequencies ignored.
 Zero-point vibrational energy     334590.9 (Joules/Mol)
                                   79.96914 (Kcal/Mol)
 Warning -- explicit consideration of  12 degrees of freedom as
           vibrations may cause significant error
 Vibrational temperatures:    127.56   132.72   155.35   224.74   271.59
          (Kelvin)            352.21   374.40   441.16   509.70   619.76
                              668.50   757.83   916.81  1138.38  1342.54
                             1360.69  1405.30  1419.90  1505.26  1539.53
                             1616.91  1743.46  1877.53  1891.21  1962.64
                             2014.44  2025.89  2086.68  2099.36  2110.79
                             2134.19  2159.30  4286.38  4297.06  4307.00
                             4376.07  4382.71  4486.11  4528.31  5364.90
                             5469.07

 Zero-point correction=                           0.127439 (Hartree/Particle)
 Thermal correction to Energy=                    0.136744
 Thermal correction to Enthalpy=                  0.137688
 Thermal correction to Gibbs Free Energy=         0.092975
 Sum of electronic and zero-point Energies=           -383.342050
 Sum of electronic and thermal Energies=              -383.332745
 Sum of electronic and thermal Enthalpies=            -383.331801
 Sum of electronic and thermal Free Energies=         -383.376514

                     E (Thermal)             CV                S
                      KCal/Mol        Cal/Mol-Kelvin    Cal/Mol-Kelvin
 Total                   85.808             31.669             94.107
 Electronic               0.000              0.000              1.377
 Translational            0.889              2.981             39.865
 Rotational               0.889              2.981             27.800
 Vibrational             84.031             25.708             25.064
 Vibration  1             0.601              1.957              3.689
 Vibration  2             0.602              1.955              3.612
 Vibration  3             0.606              1.943              3.305
 Vibration  4             0.620              1.896              2.595
 Vibration  5             0.633              1.855              2.240
 Vibration  6             0.660              1.771              1.768
 Vibration  7             0.668              1.745              1.660
 Vibration  8             0.697              1.661              1.380
 Vibration  9             0.730              1.567              1.147
 Vibration 10             0.792              1.403              0.856
 Vibration 11             0.822              1.329              0.753
 Vibration 12             0.882              1.191              0.595

 Optimization completed.
    -- Stationary point found.
 Normal termination of Gaussian 03 at Tue Jul 15 23:23:08 2014.
