 Gaussian 03, Revision D.01,
 Gaussian 03:  AM64L-G03RevD.01 13-Oct-2005

 -----------------------------------
 # freq nosymm bmk/cbsb7 iop(7/33=1)
 -----------------------------------

 -------------------
 Title Card Required
 -------------------
 Symbolic Z-matrix:
 Charge =  0 Multiplicity = 2

                          Input orientation:
 ---------------------------------------------------------------------
 Center     Atomic     Atomic              Coordinates (Angstroms)
 Number     Number      Type              X           Y           Z
 ---------------------------------------------------------------------
    1          8             0       -1.451672    1.113945    1.435058
    2          1             0       -2.092643    0.547368    0.985461
    3          8             0       -0.277741    0.313875    1.399074
    4          6             0        0.167653    0.265666    0.067350
    5          1             0        0.161559    1.283116   -0.338005
    6          8             0       -0.718783   -0.454352   -0.730319
    7          1             0       -0.605246   -1.386533   -0.525302
    8          6             0        1.581460   -0.296483    0.087543
    9          1             0        1.899187   -0.724324   -0.859583
   10          6             0        2.503753    0.137378    0.987305
   11          1             0        3.549870   -0.131946    0.886920
   12          1             0        2.201949    0.699677    1.864411
   13          6             0        1.082447   -2.457471    0.786132
   14          1             0        2.077087   -2.741585    1.109449
   15          1             0        0.373005   -2.213075    1.569545
   16          1             0        0.711372   -2.987275   -0.089689
 ---------------------------------------------------------------------

 SCF Done:  E(UBMK+HF-BMK) =  -383.178352739     A.U. after   21 cycles

 Alpha  occ. eigenvalues --  -19.58684 -19.57668 -19.53979 -10.57739 -10.48769
 Alpha  occ. eigenvalues --  -10.47662 -10.46906  -1.24353  -1.14096  -0.99830
 Alpha  occ. eigenvalues --   -0.85835  -0.76326  -0.74139  -0.65086  -0.62426
 Alpha  occ. eigenvalues --   -0.57499  -0.54014  -0.50996  -0.49268  -0.48396
 Alpha  occ. eigenvalues --   -0.46922  -0.46440  -0.43825  -0.39531  -0.38385
 Alpha  occ. eigenvalues --   -0.35407  -0.34965  -0.33286  -0.23684
 Alpha virt. eigenvalues --    0.03107   0.07121   0.07688   0.11602   0.12625
 Alpha virt. eigenvalues --    0.13526   0.15055   0.15953   0.16280   0.19157
 Alpha virt. eigenvalues --    0.19261   0.24434   0.27076   0.29937   0.31523

  Beta  occ. eigenvalues --  -19.58692 -19.57668 -19.53975 -10.57698 -10.49128
  Beta  occ. eigenvalues --  -10.46232 -10.46127  -1.24361  -1.14088  -0.99840
  Beta  occ. eigenvalues --   -0.85432  -0.74096  -0.72778  -0.64665  -0.62424
  Beta  occ. eigenvalues --   -0.57464  -0.53926  -0.50804  -0.49154  -0.48253
  Beta  occ. eigenvalues --   -0.46202  -0.45731  -0.43565  -0.39505  -0.38367
  Beta  occ. eigenvalues --   -0.34966  -0.33383  -0.31884
  Beta virt. eigenvalues --   -0.05092   0.05565   0.07154   0.08037   0.11791
  Beta virt. eigenvalues --    0.12734   0.13687   0.15216   0.16394   0.16719
  Beta virt. eigenvalues --    0.19405   0.19577   0.24548   0.27037   0.29934

 Mulliken atomic charges:
              1
     1  O   -0.261101
     2  H    0.274973
     3  O   -0.241511
     4  C    0.273265
     5  H    0.162628
     6  O   -0.409075
     7  H    0.252327
     8  C   -0.297143
     9  H    0.172471
    10  C   -0.202426
    11  H    0.135498
    12  H    0.157116
    13  C   -0.455065
    14  H    0.148212
    15  H    0.164216
    16  H    0.125616
 Sum of Mulliken charges=   0.00000

 Dipole moment (field-independent basis, Debye):
    X=     0.7949    Y=    -1.8524    Z=    -1.0583  Tot=     2.2767
 Quadrupole moment (field-independent basis, Debye-Ang):
   XX=   -37.8285   YY=   -42.6625   ZZ=   -48.0761
   XY=     0.7020   XZ=     0.3048   YZ=    -1.0507

  Exact polarizability:  70.125   3.402  71.014   3.600   4.481  50.978
 Approx polarizability:  80.773   7.141  83.537   6.664   6.824  65.604

 ******    1 imaginary frequencies (negative Signs) ******

                     1                      2                      3
                     A                      A                      A
 Frequencies --  -461.2835                80.0039               129.3362
 Red. masses --     8.5128                 3.9881                 1.2008
 Frc consts  --     1.0672                 0.0150                 0.0118
 IR Inten    --     1.0560                 0.7254                 0.2632

                     4                      5                      6
                     A                      A                      A
 Frequencies --   147.5283               203.8402               233.8264
 Red. masses --     4.7552                 2.9360                 3.0236
 Frc consts  --     0.0610                 0.0719                 0.0974
 IR Inten    --    11.5372                 2.3148                 0.3309

                     7                      8                      9
                     A                      A                      A
 Frequencies --   271.6950               333.5514               399.9708
 Red. masses --     2.9480                 2.5292                 1.4032
 Frc consts  --     0.1282                 0.1658                 0.1323
 IR Inten    --     3.1245                16.2538                19.3213

                    10                     11                     12
                     A                      A                      A
 Frequencies --   435.3526               495.7991               520.2719
 Red. masses --     1.3138                 1.5827                 1.5395
 Frc consts  --     0.1467                 0.2292                 0.2455
 IR Inten    --   107.7152                15.0188                56.8540

                    13                     14                     15
                     A                      A                      A
 Frequencies --   529.7715               555.2270               613.4616
 Red. masses --     1.3792                 1.1086                 2.9696
 Frc consts  --     0.2281                 0.2014                 0.6585
 IR Inten    --     2.7370                 5.8450                25.0553

                    16                     17                     18
                     A                      A                      A
 Frequencies --   657.6674               854.0273               899.4113
 Red. masses --     2.9807                 1.2335                 1.3882
 Frc consts  --     0.7596                 0.5301                 0.6616
 IR Inten    --    18.4134                22.3061                54.1984

                    19                     20                     21
                     A                      A                      A
 Frequencies --   937.8755               981.3935               995.3951
 Red. masses --     1.9047                 2.3826                 1.1663
 Frc consts  --     0.9871                 1.3521                 0.6808
 IR Inten    --    18.8749                32.2418                30.6530

                    22                     23                     24
                     A                      A                      A
 Frequencies --  1052.4516              1132.8715              1158.3791
 Red. masses --     6.2329                 3.8624                 2.3962
 Frc consts  --     4.0676                 2.9206                 1.8944
 IR Inten    --     5.4538               149.6623                45.6848

                    25                     26                     27
                     A                      A                      A
 Frequencies --  1274.8897              1285.4975              1388.4414
 Red. masses --     1.3613                 1.4951                 1.3400
 Frc consts  --     1.3036                 1.4557                 1.5220
 IR Inten    --    13.0527                 0.8233                24.1617

                    28                     29                     30
                     A                      A                      A
 Frequencies --  1429.3485              1438.3133              1455.3434
 Red. masses --     1.3012                 1.0993                 1.0912
 Frc consts  --     1.5663                 1.3399                 1.3617
 IR Inten    --     2.3538                 5.8953                 6.6572

                    31                     32                     33
                     A                      A                      A
 Frequencies --  1461.5080              1469.4932              1571.7149
 Red. masses --     1.1255                 1.2586                 2.3479
 Frc consts  --     1.4165                 1.6013                 3.4173
 IR Inten    --    75.0543                62.9725                 2.5923

                    34                     35                     36
                     A                      A                      A
 Frequencies --  3075.6912              3099.2995              3148.8950
 Red. masses --     1.0158                 1.0848                 1.0546
 Frc consts  --     5.6614                 6.1392                 6.1608
 IR Inten    --     2.2056                10.5314                 1.9623

                    37                     38                     39
                     A                      A                      A
 Frequencies --  3177.5383              3233.2065              3250.6376
 Red. masses --     1.0906                 1.1114                 1.1177
 Frc consts  --     6.4877                 6.8451                 6.9586
 IR Inten    --     1.0058                 3.5233                 1.5487

                    40                     41                     42
                     A                      A                      A
 Frequencies --  3266.7148              3821.7267              3904.5984
 Red. masses --     1.1161                 1.0679                 1.0644
 Frc consts  --     7.0173                 9.1898                 9.5607
 IR Inten    --     0.2457                40.0084                47.2934

 - Thermochemistry -
 -------------------
 Temperature   298.150 Kelvin.  Pressure   1.00000 Atm.
 Atom  1 has atomic number  8 and mass  15.99491

 Molecular mass:   105.05517 amu.
 Principal axes and moments of inertia in atomic units:
                           1         2         3
     EIGENVALUES --   543.34642 973.574491136.08761
           X            0.84617   0.49622  -0.19433
           Y           -0.52419   0.70926  -0.47135
           Z           -0.09606   0.50071   0.86027
 This molecule is an asymmetric top.
 Rotational symmetry number  1.
 Warning -- assumption of classical behavior for rotation
           may cause significant error
 Rotational temperatures (Kelvin)      0.15941     0.08896     0.07624
 Rotational constants (GHZ):           3.32153     1.85373     1.58856
    1 imaginary frequencies ignored.
 Zero-point vibrational energy     337179.2 (Joules/Mol)
                                   80.58777 (Kcal/Mol)
 Warning -- explicit consideration of  14 degrees of freedom as
           vibrations may cause significant error
 Vibrational temperatures:    115.11   186.09   212.26   293.28   336.42
          (Kelvin)            390.91   479.91   575.47   626.37   713.34
                              748.55   762.22   798.85   882.63   946.24
                             1228.75  1294.05  1349.39  1412.00  1432.15
                             1514.24  1629.95  1666.65  1834.28  1849.54
                             1997.66  2056.51  2069.41  2093.91  2102.78
                             2114.27  2261.34  4425.23  4459.20  4530.55
                             4571.76  4651.86  4676.94  4700.07  5498.61
                             5617.84

 Zero-point correction=                           0.128425 (Hartree/Particle)
 Thermal correction to Energy=                    0.137335
 Thermal correction to Enthalpy=                  0.138279
 Thermal correction to Gibbs Free Energy=         0.094847
 Sum of electronic and zero-point Energies=           -383.049928
 Sum of electronic and thermal Energies=              -383.041018
 Sum of electronic and thermal Enthalpies=            -383.040074
 Sum of electronic and thermal Free Energies=         -383.083505

                     E (Thermal)             CV                S
                      KCal/Mol        Cal/Mol-Kelvin    Cal/Mol-Kelvin
 Total                   86.179             32.304             91.410
 Electronic               0.000              0.000              1.377
 Translational            0.889              2.981             39.865
 Rotational               0.889              2.981             27.888
 Vibrational             84.402             26.343             22.280
 Vibration  1             0.600              1.963              3.891
 Vibration  2             0.612              1.924              2.956
 Vibration  3             0.617              1.905              2.704
 Vibration  4             0.640              1.834              2.098
 Vibration  5             0.654              1.789              1.849
 Vibration  6             0.675              1.725              1.585
 Vibration  7             0.715              1.609              1.243
 Vibration  8             0.766              1.470              0.963
 Vibration  9             0.796              1.393              0.841
 Vibration 10             0.851              1.259              0.669
 Vibration 11             0.875              1.205              0.609
 Vibration 12             0.885              1.184              0.588
 Vibration 13             0.911              1.128              0.533
 Vibration 14             0.973              1.003              0.427

 Normal termination of Gaussian 03 at Tue Jul 15 16:39:38 2014.
