 Gaussian 03, Revision D.01,
 Gaussian 03:  AM64L-G03RevD.01 13-Oct-2005

 -------------------------------------
 # freq nosymm b3lyp/cbsb7 iop(7/33=1)
 -------------------------------------

 -------------------
 Title Card Required
 -------------------
 Symbolic Z-matrix:
 Charge =  0 Multiplicity = 1

                          Input orientation:
 ---------------------------------------------------------------------
 Center     Atomic     Atomic              Coordinates (Angstroms)
 Number     Number      Type              X           Y           Z
 ---------------------------------------------------------------------
    1          6             0       -0.112176   -0.350375    0.262733
    2          6             0        1.356191   -0.172217   -0.183656
    3          6             0       -0.240894    1.151778   -0.073484
    4          1             0       -0.212116   -0.575886    1.327492
    5          1             0        1.656880   -0.731399   -1.080809
    6          1             0        2.112382   -0.329317    0.592416
    7          1             0       -0.906518    1.374576   -0.911219
    8          1             0       -0.458031    1.814540    0.769697
    9          8             0        1.153313    1.226443   -0.467950
   10          6             0       -0.981948   -1.316593   -0.534185
   11          1             0       -0.644377   -2.348190   -0.355260
   12          1             0       -2.016650   -1.249529   -0.187651
   13          8             0       -1.030042   -1.027434   -1.926067
   14          1             0       -0.154358   -1.170038   -2.298474
 ---------------------------------------------------------------------

 SCF Done:  E(RB+HF-LYP) =  -307.718710704     A.U. after   13 cycles

 Alpha  occ. eigenvalues --  -19.12133 -19.11008 -10.22530 -10.22308 -10.21480
 Alpha  occ. eigenvalues --  -10.18636  -1.04195  -1.02655  -0.77664  -0.69663
 Alpha  occ. eigenvalues --   -0.66986  -0.56101  -0.52021  -0.51202  -0.47853
 Alpha  occ. eigenvalues --   -0.44872  -0.42845  -0.40988  -0.40006  -0.35396
 Alpha  occ. eigenvalues --   -0.32174  -0.31228  -0.28203  -0.25299
 Alpha virt. eigenvalues --    0.02419   0.04267   0.05969   0.07883   0.09480
 Alpha virt. eigenvalues --    0.09927   0.11328   0.12919   0.13702   0.16070
 Alpha virt. eigenvalues --    0.18380   0.21095   0.22421   0.28492   0.32410

 Mulliken atomic charges:
              1
     1  C   -0.357301
     2  C    0.069914
     3  C    0.077134
     4  H    0.122352
     5  H    0.065562
     6  H    0.097893
     7  H    0.107876
     8  H    0.093896
     9  O   -0.369383
    10  C    0.028900
    11  H    0.099770
    12  H    0.113834
    13  O   -0.387637
    14  H    0.237190
 Sum of Mulliken charges=   0.00000

 Dipole moment (field-independent basis, Debye):
    X=     0.0740    Y=    -1.8514    Z=     1.4227  Tot=     2.3361
 Quadrupole moment (field-independent basis, Debye-Ang):
   XX=   -38.9650   YY=   -37.7373   ZZ=   -37.7264
   XY=    -4.6589   XZ=    -3.2129   YZ=     1.2128

  Exact polarizability:  51.821  -1.187  50.821  -0.055   1.599  47.541
 Approx polarizability:  70.505  -2.831  67.509  -1.413  -0.152  67.122

                     1                      2                      3
                     A                      A                      A
 Frequencies --    77.1000               142.7190               269.1022
 Red. masses --     3.9031                 2.3317                 3.2210
 Frc consts  --     0.0137                 0.0280                 0.1374
 IR Inten    --     7.0410                 4.5298                 8.6828

                     4                      5                      6
                     A                      A                      A
 Frequencies --   287.5986               343.9425               584.6247
 Red. masses --     1.3398                 1.5718                 2.8135
 Frc consts  --     0.0653                 0.1096                 0.5666
 IR Inten    --    91.7793                41.3613                 7.3024

                     7                      8                      9
                     A                      A                      A
 Frequencies --   716.0126               864.3749               881.0828
 Red. masses --     3.4738                 3.5138                 1.3872
 Frc consts  --     1.0493                 1.5468                 0.6345
 IR Inten    --     3.8700                 9.8212                 5.7630

                    10                     11                     12
                     A                      A                      A
 Frequencies --   897.8049               969.8156              1008.3399
 Red. masses --     1.6636                 3.8401                 2.7305
 Frc consts  --     0.7901                 2.1280                 1.6357
 IR Inten    --     2.7872                36.7963                34.4309

                    13                     14                     15
                     A                      A                      A
 Frequencies --  1031.1267              1069.7263              1114.2120
 Red. masses --     8.9385                 1.6334                 2.7481
 Frc consts  --     5.5994                 1.1012                 2.0101
 IR Inten    --    86.8566                25.5223                 0.2972

                    16                     17                     18
                     A                      A                      A
 Frequencies --  1131.0625              1161.8787              1174.8233
 Red. masses --     2.2709                 1.0972                 1.1332
 Frc consts  --     1.7117                 0.8727                 0.9215
 IR Inten    --    42.9533                 0.3739                 0.6559

                    19                     20                     21
                     A                      A                      A
 Frequencies --  1210.8811              1282.3984              1318.7861
 Red. masses --     1.1058                 1.5393                 1.2751
 Frc consts  --     0.9552                 1.4915                 1.3066
 IR Inten    --    15.6113                11.1087                 1.8644

                    22                     23                     24
                     A                      A                      A
 Frequencies --  1344.4354              1371.1779              1403.3322
 Red. masses --     1.5311                 1.3173                 1.3870
 Frc consts  --     1.6306                 1.4592                 1.6094
 IR Inten    --     0.1838                 1.4592                18.8165

                    25                     26                     27
                     A                      A                      A
 Frequencies --  1423.6326              1501.5932              1513.6107
 Red. masses --     1.2833                 1.0811                 1.0812
 Frc consts  --     1.5324                 1.4362                 1.4594
 IR Inten    --    18.6788                 1.9760                 0.7216

                    28                     29                     30
                     A                      A                      A
 Frequencies --  1542.5621              2975.7614              2980.7092
 Red. masses --     1.1147                 1.0703                 1.0659
 Frc consts  --     1.5627                 5.5840                 5.5798
 IR Inten    --     1.6165                43.1937               125.7355

                    31                     32                     33
                     A                      A                      A
 Frequencies --  3028.1311              3038.1157              3061.5854
 Red. masses --     1.0583                 1.0975                 1.0904
 Frc consts  --     5.7175                 5.9685                 6.0216
 IR Inten    --    54.6228                41.3948                21.5784

                    34                     35                     36
                     A                      A                      A
 Frequencies --  3071.9589              3083.2490              3827.8037
 Red. masses --     1.0916                 1.1084                 1.0662
 Frc consts  --     6.0692                 6.2083                 9.2041
 IR Inten    --    38.0793                52.4183                19.1360

 - Thermochemistry -
 -------------------
 Temperature   298.150 Kelvin.  Pressure   1.00000 Atm.
 Atom  1 has atomic number  6 and mass  12.00000

 Molecular mass:    88.05243 amu.
 Principal axes and moments of inertia in atomic units:
                           1         2         3
     EIGENVALUES --   274.54928 686.10139 695.89625
           X            0.63493  -0.59162  -0.49683
           Y            0.68206   0.73130   0.00082
           Z            0.36285  -0.33939   0.86785
 This molecule is an asymmetric top.
 Rotational symmetry number  1.
 Rotational temperatures (Kelvin)      0.31548     0.12624     0.12446
 Rotational constants (GHZ):           6.57347     2.63043     2.59341
 Zero-point vibrational energy     315246.3 (Joules/Mol)
                                   75.34568 (Kcal/Mol)
 Warning -- explicit consideration of   6 degrees of freedom as
           vibrations may cause significant error
 Vibrational temperatures:    110.93   205.34   387.18   413.79   494.86
          (Kelvin)            841.14  1030.18  1243.64  1267.68  1291.74
                             1395.35  1450.77  1483.56  1539.10  1603.10
                             1627.34  1671.68  1690.31  1742.19  1845.08
                             1897.44  1934.34  1972.82  2019.08  2048.29
                             2160.46  2177.75  2219.40  4281.45  4288.57
                             4356.80  4371.17  4404.93  4419.86  4436.10
                             5507.35

 Zero-point correction=                           0.120071 (Hartree/Particle)
 Thermal correction to Energy=                    0.126358
 Thermal correction to Enthalpy=                  0.127302
 Thermal correction to Gibbs Free Energy=         0.089906
 Sum of electronic and zero-point Energies=           -307.598640
 Sum of electronic and thermal Energies=              -307.592353
 Sum of electronic and thermal Enthalpies=            -307.591409
 Sum of electronic and thermal Free Energies=         -307.628804

                     E (Thermal)             CV                S
                      KCal/Mol        Cal/Mol-Kelvin    Cal/Mol-Kelvin
 Total                   79.291             21.853             78.705
 Electronic               0.000              0.000              0.000
 Translational            0.889              2.981             39.339
 Rotational               0.889              2.981             26.375
 Vibrational             77.513             15.891             12.992
 Vibration  1             0.599              1.964              3.963
 Vibration  2             0.616              1.910              2.767
 Vibration  3             0.673              1.730              1.602
 Vibration  4             0.685              1.697              1.488
 Vibration  5             0.723              1.588              1.194
 Vibration  6             0.942              1.065              0.477

 Normal termination of Gaussian 03 at Tue Jun 18 11:22:18 2013.
