 Gaussian 03, Revision D.01,
 Gaussian 03:  AM64L-G03RevD.01 13-Oct-2005

 -------------------------------------
 # freq nosymm b3lyp/cbsb7 iop(7/33=1)
 -------------------------------------

 -------------------
 Title Card Required
 -------------------
 Symbolic Z-matrix:
 Charge =  0 Multiplicity = 2

                          Input orientation:
 ---------------------------------------------------------------------
 Center     Atomic     Atomic              Coordinates (Angstroms)
 Number     Number      Type              X           Y           Z
 ---------------------------------------------------------------------
    1          6             0       -3.614221    1.364055   -0.037029
    2          1             0       -2.964890    1.850018    0.706531
    3          1             0       -3.405671    1.753977   -1.047349
    4          8             0       -4.929442    1.416340    0.259692
    5          1             0       -5.151497    0.267375    0.937275
    6          6             0       -3.135338   -0.189042   -0.126042
    7          6             0       -1.616645   -0.271272   -0.162165
    8          1             0       -1.298873   -1.309562   -0.278784
    9          1             0       -1.230440    0.303498   -1.006335
   10          1             0       -1.185723    0.123764    0.759167
   11          6             0       -3.822746   -0.884704   -1.296638
   12          1             0       -3.398736   -0.525410   -2.236884
   13          1             0       -3.658197   -1.962386   -1.227138
   14          1             0       -4.892506   -0.689282   -1.296262
   15          8             0       -3.512178   -0.721463    1.133655
   16          8             0       -4.907189   -0.736824    1.255152
 ---------------------------------------------------------------------

 SCF Done:  E(UB+HF-LYP) =  -383.459822094     A.U. after   28 cycles

 Alpha  occ. eigenvalues --  -19.22331 -19.18373 -19.13264 -10.27281 -10.24093
 Alpha  occ. eigenvalues --  -10.19102 -10.18075  -1.17179  -1.02684  -0.93113
 Alpha  occ. eigenvalues --   -0.79648  -0.72251  -0.68182  -0.62603  -0.52981
 Alpha  occ. eigenvalues --   -0.51830  -0.49345  -0.47203  -0.45348  -0.44736
 Alpha  occ. eigenvalues --   -0.42059  -0.41643  -0.40727  -0.39257  -0.38200
 Alpha  occ. eigenvalues --   -0.36723  -0.29556  -0.27896  -0.26711
 Alpha virt. eigenvalues --    0.01868   0.03578   0.06587   0.07685   0.08619
 Alpha virt. eigenvalues --    0.09412   0.11588   0.12603   0.12796   0.14562
 Alpha virt. eigenvalues --    0.15169   0.17913   0.19166   0.21100   0.23011

  Beta  occ. eigenvalues --  -19.21752 -19.17732 -19.11973 -10.27079 -10.24060
  Beta  occ. eigenvalues --  -10.19099 -10.18058  -1.15992  -1.00058  -0.91898
  Beta  occ. eigenvalues --   -0.78922  -0.72175  -0.67019  -0.61563  -0.52119
  Beta  occ. eigenvalues --   -0.50427  -0.48921  -0.46720  -0.44180  -0.43784
  Beta  occ. eigenvalues --   -0.41773  -0.40741  -0.40275  -0.37757  -0.35872
  Beta  occ. eigenvalues --   -0.34730  -0.27639  -0.26475
  Beta virt. eigenvalues --   -0.16296   0.02240   0.03968   0.06734   0.07801
  Beta virt. eigenvalues --    0.08784   0.09573   0.11707   0.12710   0.13084
  Beta virt. eigenvalues --    0.14718   0.15761   0.18254   0.19390   0.21471

 Mulliken atomic charges:
              1
     1  C    0.089526
     2  H    0.095775
     3  H    0.113384
     4  O   -0.385093
     5  H    0.294726
     6  C   -0.117334
     7  C   -0.248356
     8  H    0.130177
     9  H    0.119178
    10  H    0.131824
    11  C   -0.213222
    12  H    0.109187
    13  H    0.126445
    14  H    0.131526
    15  O   -0.150631
    16  O   -0.227113
 Sum of Mulliken charges=   0.00000

 Dipole moment (field-independent basis, Debye):
    X=     2.8390    Y=     0.0780    Z=    -2.2966  Tot=     3.6524
 Quadrupole moment (field-independent basis, Debye-Ang):
   XX=   -64.1277   YY=   -44.7027   ZZ=   -44.5325
   XY=     1.4401   XZ=     8.9592   YZ=     1.5233

  Exact polarizability:  66.766  -2.998  69.966  -4.388  -4.525  56.173
 Approx polarizability: 103.781 -10.380 111.202  -6.275 -18.293  83.917

 ******    1 imaginary frequencies (negative Signs) ******

                     1                      2                      3
                     A                      A                      A
 Frequencies --  -868.5195               166.2154               186.7436
 Red. masses --     1.4680                 1.8021                 1.4719
 Frc consts  --     0.6524                 0.0293                 0.0302
 IR Inten    --   247.2095                 1.4593                 0.9923

                     4                      5                      6
                     A                      A                      A
 Frequencies --   206.9710               265.9902               290.3460
 Red. masses --     1.1344                 3.0574                 2.8273
 Frc consts  --     0.0286                 0.1274                 0.1404
 IR Inten    --     0.0859                 1.9858                 0.1388

                     7                      8                      9
                     A                      A                      A
 Frequencies --   336.8326               391.0843               446.4291
 Red. masses --     2.5121                 2.5595                 5.3528
 Frc consts  --     0.1679                 0.2307                 0.6285
 IR Inten    --     0.2850                 1.6262                 5.3519

                    10                     11                     12
                     A                      A                      A
 Frequencies --   509.5589               545.0707               632.0862
 Red. masses --     3.3879                 3.4472                 2.5960
 Frc consts  --     0.5183                 0.6034                 0.6111
 IR Inten    --     5.6864                36.7336                91.6524

                    13                     14                     15
                     A                      A                      A
 Frequencies --   659.5940               807.3122               886.7527
 Red. masses --     3.5201                 3.8556                 1.8511
 Frc consts  --     0.9023                 1.4806                 0.8576
 IR Inten    --    28.2806                30.2117                 1.8646

                    16                     17                     18
                     A                      A                      A
 Frequencies --   941.4601               952.7680               971.0650
 Red. masses --     2.0906                 1.6013                 1.7209
 Frc consts  --     1.0918                 0.8565                 0.9561
 IR Inten    --    31.7167                 0.9243                16.8921

                    19                     20                     21
                     A                      A                      A
 Frequencies --  1024.5219              1073.4183              1140.2783
 Red. masses --     1.5297                 1.8284                 1.9861
 Frc consts  --     0.9460                 1.2413                 1.5215
 IR Inten    --     8.8498                31.0566                59.1920

                    22                     23                     24
                     A                      A                      A
 Frequencies --  1194.7096              1215.1218              1245.1534
 Red. masses --     1.9031                 2.1907                 2.1482
 Frc consts  --     1.6004                 1.9058                 1.9623
 IR Inten    --    22.8929                 5.8448                15.3067

                    25                     26                     27
                     A                      A                      A
 Frequencies --  1262.2837              1316.4758              1401.8031
 Red. masses --     2.3447                 1.3141                 1.2648
 Frc consts  --     2.2012                 1.3418                 1.4643
 IR Inten    --    17.8563                 9.8126                19.3663

                    28                     29                     30
                     A                      A                      A
 Frequencies --  1419.4315              1477.5072              1484.5577
 Red. masses --     1.2352                 1.0540                 1.0463
 Frc consts  --     1.4663                 1.3556                 1.3587
 IR Inten    --     5.9134                 3.4897                 1.8068

                    31                     32                     33
                     A                      A                      A
 Frequencies --  1495.3255              1500.5695              1507.8507
 Red. masses --     1.0512                 1.0970                 1.0561
 Frc consts  --     1.3849                 1.4554                 1.4147
 IR Inten    --     2.3226                11.4367                 6.7278

                    34                     35                     36
                     A                      A                      A
 Frequencies --  1834.2068              2931.4274              2992.1320
 Red. masses --     1.0517                 1.0495                 1.1083
 Frc consts  --     2.0847                 5.3136                 5.8463
 IR Inten    --    98.8421                37.5420                56.9435

                    37                     38                     39
                     A                      A                      A
 Frequencies --  3044.3003              3049.4323              3111.0739
 Red. masses --     1.0350                 1.0371                 1.1029
 Frc consts  --     5.6514                 5.6819                 6.2892
 IR Inten    --     6.8559                14.0529                 1.8918

                    40                     41                     42
                     A                      A                      A
 Frequencies --  3116.3596              3122.7663              3154.4214
 Red. masses --     1.1022                 1.1030                 1.0995
 Frc consts  --     6.3069                 6.3370                 6.4461
 IR Inten    --    19.3075                14.3600                 3.4755

 - Thermochemistry -
 -------------------
 Temperature   298.150 Kelvin.  Pressure   1.00000 Atm.
 Atom  1 has atomic number  6 and mass  12.00000

 Molecular mass:   105.05517 amu.
 Principal axes and moments of inertia in atomic units:
                           1         2         3
     EIGENVALUES --   540.10054 733.08322 861.26465
           X            0.87210   0.14375   0.46773
           Y           -0.32768   0.88146   0.34007
           Z           -0.36340  -0.44985   0.81583
 This molecule is an asymmetric top.
 Rotational symmetry number  1.
 Warning -- assumption of classical behavior for rotation
           may cause significant error
 Rotational temperatures (Kelvin)      0.16037     0.11815     0.10057
 Rotational constants (GHZ):           3.34149     2.46185     2.09545
    1 imaginary frequencies ignored.
 Zero-point vibrational energy     330835.7 (Joules/Mol)
                                   79.07163 (Kcal/Mol)
 Warning -- explicit consideration of  10 degrees of freedom as
           vibrations may cause significant error
 Vibrational temperatures:    239.15   268.68   297.78   382.70   417.74
          (Kelvin)            484.63   562.68   642.31   733.14   784.23
                              909.43   949.01  1161.54  1275.84  1354.55
                             1370.82  1397.14  1474.06  1544.41  1640.60
                             1718.92  1748.29  1791.50  1816.14  1894.11
                             2016.88  2042.24  2125.80  2135.94  2151.44
                             2158.98  2169.46  2639.01  4217.67  4305.01
                             4380.06  4387.45  4476.14  4483.74  4492.96
                             4538.50

 Zero-point correction=                           0.126009 (Hartree/Particle)
 Thermal correction to Energy=                    0.133588
 Thermal correction to Enthalpy=                  0.134532
 Thermal correction to Gibbs Free Energy=         0.094333
 Sum of electronic and zero-point Energies=           -383.333813
 Sum of electronic and thermal Energies=              -383.326234
 Sum of electronic and thermal Enthalpies=            -383.325290
 Sum of electronic and thermal Free Energies=         -383.365490

                     E (Thermal)             CV                S
                      KCal/Mol        Cal/Mol-Kelvin    Cal/Mol-Kelvin
 Total                   83.828             28.520             84.607
 Electronic               0.000              0.000              1.377
 Translational            0.889              2.981             39.865
 Rotational               0.889              2.981             27.325
 Vibrational             82.050             22.558             16.039
 Vibration  1             0.624              1.884              2.478
 Vibration  2             0.632              1.858              2.260
 Vibration  3             0.641              1.830              2.070
 Vibration  4             0.672              1.735              1.622
 Vibration  5             0.686              1.692              1.472
 Vibration  6             0.718              1.602              1.227
 Vibration  7             0.759              1.489              0.996
 Vibration  8             0.806              1.369              0.807
 Vibration  9             0.865              1.229              0.635
 Vibration 10             0.900              1.150              0.554

 Optimization completed.
    -- Stationary point found.
 Normal termination of Gaussian 03 at Sun Jun  9 18:41:55 2013.
