 Gaussian 03, Revision D.01,
 Gaussian 03:  AM64L-G03RevD.01 13-Oct-2005

 -----------------------------------
 # freq nosymm bmk/cbsb7 iop(7/33=1)
 -----------------------------------

 -------------------
 Title Card Required
 -------------------
 Symbolic Z-matrix:
 Charge =  0 Multiplicity = 2

                          Input orientation:
 ---------------------------------------------------------------------
 Center     Atomic     Atomic              Coordinates (Angstroms)
 Number     Number      Type              X           Y           Z
 ---------------------------------------------------------------------
    1          8             0       -2.543797    0.018267   -0.347601
    2          1             0       -2.619090   -0.260103    0.574841
    3          8             0       -1.259889    0.627473   -0.366014
    4          6             0       -0.300592   -0.381087   -0.186412
    5          1             0       -0.495300   -1.192261   -0.895142
    6          8             0       -0.410330   -0.944745    1.084658
    7          1             0       -0.022046   -0.324673    1.712094
    8          6             0        1.069799    0.283461   -0.442534
    9          1             0        0.993308    0.734753   -1.445420
   10          6             0        2.180165   -0.782534   -0.459102
   11          1             0        1.997462   -1.526378   -1.240730
   12          1             0        3.151184   -0.317048   -0.651758
   13          1             0        2.226624   -1.302767    0.502043
   14          6             0        1.336209    1.372658    0.558451
   15          1             0        0.575170    2.118627    0.763842
   16          1             0        2.342212    1.541419    0.929284
 ---------------------------------------------------------------------

 SCF Done:  E(UBMK+HF-BMK) =  -383.237430905     A.U. after   19 cycles

 Alpha  occ. eigenvalues --  -19.58234 -19.57351 -19.53888 -10.57233 -10.48636
 Alpha  occ. eigenvalues --  -10.48201 -10.46123  -1.24053  -1.13884  -0.99597
 Alpha  occ. eigenvalues --   -0.88240  -0.76202  -0.74080  -0.65365  -0.61574
 Alpha  occ. eigenvalues --   -0.56181  -0.55550  -0.51846  -0.49688  -0.48762
 Alpha  occ. eigenvalues --   -0.46705  -0.44320  -0.41174  -0.40693  -0.38924
 Alpha  occ. eigenvalues --   -0.37833  -0.34995  -0.32714  -0.26433
 Alpha virt. eigenvalues --    0.07530   0.08268   0.10519   0.12277   0.13312
 Alpha virt. eigenvalues --    0.13839   0.14927   0.16558   0.17818   0.19400
 Alpha virt. eigenvalues --    0.21762   0.23617   0.26421   0.27966   0.30444

  Beta  occ. eigenvalues --  -19.58239 -19.57347 -19.53853 -10.57142 -10.48751
  Beta  occ. eigenvalues --  -10.46609 -10.46105  -1.24041  -1.13795  -0.99563
  Beta  occ. eigenvalues --   -0.87489  -0.74572  -0.73369  -0.64237  -0.61524
  Beta  occ. eigenvalues --   -0.56012  -0.54832  -0.51412  -0.49411  -0.48607
  Beta  occ. eigenvalues --   -0.46337  -0.44272  -0.40614  -0.40216  -0.38812
  Beta  occ. eigenvalues --   -0.37556  -0.34849  -0.32699
  Beta virt. eigenvalues --   -0.04963   0.07607   0.08750   0.10781   0.12356
  Beta virt. eigenvalues --    0.13821   0.14181   0.15310   0.16901   0.17897
  Beta virt. eigenvalues --    0.19522   0.22360   0.24062   0.26604   0.28233

 Mulliken atomic charges:
              1
     1  O   -0.262796
     2  H    0.273853
     3  O   -0.246828
     4  C    0.255476
     5  H    0.147115
     6  O   -0.410027
     7  H    0.250772
     8  C   -0.269822
     9  H    0.178684
    10  C   -0.333716
    11  H    0.134113
    12  H    0.137781
    13  H    0.134387
    14  C   -0.304556
    15  H    0.167064
    16  H    0.148502
 Sum of Mulliken charges=   0.00000

 Dipole moment (field-independent basis, Debye):
    X=     2.1093    Y=    -0.0245    Z=     1.2003  Tot=     2.4270
 Quadrupole moment (field-independent basis, Debye-Ang):
   XX=   -43.5887   YY=   -45.3130   ZZ=   -41.0257
   XY=     1.9055   XZ=    -3.9456   YZ=     2.7073

  Exact polarizability:  66.637   1.591  52.441  -0.139   2.980  50.587
 Approx polarizability:  72.457   3.176  63.500   1.018   1.133  63.946

                     1                      2                      3
                     A                      A                      A
 Frequencies --   100.5124               166.4389               203.9847
 Red. masses --     3.5698                 3.6333                 2.8222
 Frc consts  --     0.0212                 0.0593                 0.0692
 IR Inten    --     1.1761                 8.6319                 2.7382

                     4                      5                      6
                     A                      A                      A
 Frequencies --   207.4338               233.5282               296.5232
 Red. masses --     1.1706                 1.1387                 3.4137
 Frc consts  --     0.0297                 0.0366                 0.1768
 IR Inten    --     2.8695                 3.4073                 5.2366

                     7                      8                      9
                     A                      A                      A
 Frequencies --   341.9412               357.3009               406.2558
 Red. masses --     2.3162                 2.3309                 1.7206
 Frc consts  --     0.1596                 0.1753                 0.1673
 IR Inten    --    11.6653                26.2905                34.1109

                    10                     11                     12
                     A                      A                      A
 Frequencies --   464.8714               495.2993               561.3711
 Red. masses --     3.0093                 1.1105                 1.4514
 Frc consts  --     0.3832                 0.1605                 0.2695
 IR Inten    --     4.5317               154.7188                50.8485

                    13                     14                     15
                     A                      A                      A
 Frequencies --   643.3464               701.9228               857.4779
 Red. masses --     4.0441                 2.6596                 2.7526
 Frc consts  --     0.9862                 0.7721                 1.1924
 IR Inten    --    33.5328                 7.0272                 9.3728

                    16                     17                     18
                     A                      A                      A
 Frequencies --   935.8160               960.7137               995.6914
 Red. masses --     1.5751                 1.7162                 2.0911
 Frc consts  --     0.8127                 0.9332                 1.2215
 IR Inten    --    11.8975                18.3802                39.2174

                    19                     20                     21
                     A                      A                      A
 Frequencies --  1020.7886              1085.3703              1099.5134
 Red. masses --     4.0110                 3.4995                 2.9333
 Frc consts  --     2.4625                 2.4289                 2.0894
 IR Inten    --    19.9574                50.3971                68.7458

                    22                     23                     24
                     A                      A                      A
 Frequencies --  1167.7712              1195.3690              1271.3910
 Red. masses --     1.9247                 1.6491                 1.8696
 Frc consts  --     1.5464                 1.3884                 1.7806
 IR Inten    --    11.4690                57.8392                 6.5310

                    25                     26                     27
                     A                      A                      A
 Frequencies --  1314.0874              1344.3691              1387.2553
 Red. masses --     1.4165                 1.5438                 1.3643
 Frc consts  --     1.4412                 1.6439                 1.5469
 IR Inten    --     8.6160                 8.2344                11.0248

                    28                     29                     30
                     A                      A                      A
 Frequencies --  1415.6558              1456.8506              1468.7116
 Red. masses --     1.2420                 1.1691                 1.1474
 Frc consts  --     1.4665                 1.4619                 1.4582
 IR Inten    --     5.8319                19.4162                94.6999

                    31                     32                     33
                     A                      A                      A
 Frequencies --  1470.7468              1510.1549              1513.8287
 Red. masses --     1.2060                 1.0507                 1.0554
 Frc consts  --     1.5371                 1.4118                 1.4250
 IR Inten    --    18.4087                16.4806                 4.4938

                    34                     35                     36
                     A                      A                      A
 Frequencies --  2992.1986              3041.5998              3102.7911
 Red. masses --     1.0805                 1.0348                 1.0872
 Frc consts  --     5.6998                 5.6406                 6.1671
 IR Inten    --     6.0629                14.0483                17.4826

                    37                     38                     39
                     A                      A                      A
 Frequencies --  3116.0747              3127.1759              3142.6375
 Red. masses --     1.1022                 1.1028                 1.0507
 Frc consts  --     6.3055                 6.3541                 6.1137
 IR Inten    --    16.4623                11.0471                 5.3152

                    40                     41                     42
                     A                      A                      A
 Frequencies --  3256.8619              3822.4453              3863.2460
 Red. masses --     1.1197                 1.0678                 1.0652
 Frc consts  --     6.9977                 9.1927                 9.3663
 IR Inten    --     2.8118                40.0140                44.6194

 - Thermochemistry -
 -------------------
 Temperature   298.150 Kelvin.  Pressure   1.00000 Atm.
 Atom  1 has atomic number  8 and mass  15.99491

 Molecular mass:   105.05517 amu.
 Principal axes and moments of inertia in atomic units:
                           1         2         3
     EIGENVALUES --   386.570101066.613341158.18145
           X            0.99990   0.00579  -0.01314
           Y           -0.00394   0.99061   0.13663
           Z            0.01381  -0.13657   0.99053
 This molecule is an asymmetric top.
 Rotational symmetry number  1.
 Rotational temperatures (Kelvin)      0.22406     0.08120     0.07478
 Rotational constants (GHZ):           4.66860     1.69203     1.55825
 Zero-point vibrational energy     347618.8 (Joules/Mol)
                                   83.08289 (Kcal/Mol)
 Warning -- explicit consideration of  12 degrees of freedom as
           vibrations may cause significant error
 Vibrational temperatures:    144.61   239.47   293.49   298.45   335.99
          (Kelvin)            426.63   491.98   514.08   584.51   668.85
                              712.62   807.69   925.63  1009.91  1233.72
                             1346.43  1382.25  1432.58  1468.69  1561.60
                             1581.95  1680.16  1719.87  1829.25  1890.68
                             1934.24  1995.95  2036.81  2096.08  2113.15
                             2116.07  2172.77  2178.06  4305.10  4376.18
                             4464.22  4483.33  4499.30  4521.55  4685.89
                             5499.64  5558.34

 Zero-point correction=                           0.132401 (Hartree/Particle)
 Thermal correction to Energy=                    0.140945
 Thermal correction to Enthalpy=                  0.141889
 Thermal correction to Gibbs Free Energy=         0.099531
 Sum of electronic and zero-point Energies=           -383.105030
 Sum of electronic and thermal Energies=              -383.096486
 Sum of electronic and thermal Enthalpies=            -383.095542
 Sum of electronic and thermal Free Energies=         -383.137900

                     E (Thermal)             CV                S
                      KCal/Mol        Cal/Mol-Kelvin    Cal/Mol-Kelvin
 Total                   88.444             31.228             89.151
 Electronic               0.000              0.000              1.377
 Translational            0.889              2.981             39.865
 Rotational               0.889              2.981             27.659
 Vibrational             86.667             25.266             20.249
 Vibration  1             0.604              1.949              3.444
 Vibration  2             0.624              1.884              2.475
 Vibration  3             0.640              1.834              2.097
 Vibration  4             0.641              1.829              2.066
 Vibration  5             0.654              1.790              1.852
 Vibration  6             0.690              1.680              1.436
 Vibration  7             0.721              1.592              1.203
 Vibration  8             0.732              1.560              1.134
 Vibration  9             0.771              1.457              0.940
 Vibration 10             0.822              1.328              0.752
 Vibration 11             0.851              1.260              0.670
 Vibration 12             0.917              1.115              0.521

 Normal termination of Gaussian 03 at Fri Jul 11 20:11:46 2014.
