 Gaussian 03, Revision D.01,
 Gaussian 03:  AM64L-G03RevD.01 13-Oct-2005

 -------------------------------------
 # freq nosymm b3lyp/cbsb7 iop(7/33=1)
 -------------------------------------

 -------------------
 Title Card Required
 -------------------
 Symbolic Z-matrix:
 Charge =  0 Multiplicity = 2

                          Input orientation:
 ---------------------------------------------------------------------
 Center     Atomic     Atomic              Coordinates (Angstroms)
 Number     Number      Type              X           Y           Z
 ---------------------------------------------------------------------
    1          6             0       -0.339499   -0.813072   -0.128409
    2          1             0       -0.052845   -0.162784   -0.968028
    3          6             0       -0.009155   -0.078552    1.174996
    4          1             0        1.049625    0.190390    1.206235
    5          1             0       -0.603645    0.831961    1.261326
    6          1             0       -0.223519   -0.707691    2.042980
    7          6             0        0.409633   -2.141694   -0.281623
    8          1             0        0.166987   -2.824889    0.535595
    9          1             0        0.156214   -2.639031   -1.222951
   10          1             0        1.489934   -1.976594   -0.275237
   11          6             0       -1.844606   -0.986376   -0.325664
   12          1             0       -2.104716   -1.663544   -1.155041
   13          8             0       -2.645624   -0.010678   -0.083529
   14          8             0       -2.314305   -1.947687    0.982222
   15          8             0       -3.404230   -2.721779    0.628119
   16          1             0       -4.100744   -2.381541    1.211295
 ---------------------------------------------------------------------

 SCF Done:  E(UB+HF-LYP) =  -383.451298749     A.U. after   25 cycles

 Alpha  occ. eigenvalues --  -19.23273 -19.22170 -19.12723 -10.27230 -10.18456
 Alpha  occ. eigenvalues --  -10.16435 -10.15725  -1.18390  -1.04119  -0.90358
 Alpha  occ. eigenvalues --   -0.80336  -0.69106  -0.65548  -0.58187  -0.56706
 Alpha  occ. eigenvalues --   -0.49898  -0.49652  -0.46386  -0.45088  -0.44446
 Alpha  occ. eigenvalues --   -0.40073  -0.38903  -0.37510  -0.37066  -0.34779
 Alpha  occ. eigenvalues --   -0.34211  -0.32879  -0.29752  -0.26566
 Alpha virt. eigenvalues --    0.00172   0.03113   0.05100   0.06906   0.08273
 Alpha virt. eigenvalues --    0.08530   0.10474   0.11226   0.12804   0.14785
 Alpha virt. eigenvalues --    0.15108   0.20149   0.22693   0.23992   0.25510

  Beta  occ. eigenvalues --  -19.21895 -19.21822 -19.11282 -10.27440 -10.18451
  Beta  occ. eigenvalues --  -10.16432 -10.15727  -1.16709  -1.01446  -0.87896
  Beta  occ. eigenvalues --   -0.80167  -0.69101  -0.65116  -0.57190  -0.56221
  Beta  occ. eigenvalues --   -0.49377  -0.47151  -0.44887  -0.44541  -0.43245
  Beta  occ. eigenvalues --   -0.39713  -0.38775  -0.36936  -0.35590  -0.34592
  Beta  occ. eigenvalues --   -0.32223  -0.30207  -0.25398
  Beta virt. eigenvalues --   -0.15856   0.00974   0.03585   0.05724   0.07515
  Beta virt. eigenvalues --    0.08440   0.08605   0.10639   0.11245   0.12884
  Beta virt. eigenvalues --    0.14800   0.15122   0.20201   0.22934   0.24043

 Mulliken atomic charges:
              1
     1  C   -0.228061
     2  H    0.130472
     3  C   -0.275883
     4  H    0.105212
     5  H    0.123638
     6  H    0.110868
     7  C   -0.276204
     8  H    0.118448
     9  H    0.102992
    10  H    0.110837
    11  C    0.251872
    12  H    0.114582
    13  O   -0.306784
    14  O   -0.185867
    15  O   -0.186057
    16  H    0.289936
 Sum of Mulliken charges=   0.00000

 Dipole moment (field-independent basis, Debye):
    X=     0.1247    Y=    -1.1919    Z=     0.2167  Tot=     1.2178
 Quadrupole moment (field-independent basis, Debye-Ang):
   XX=   -37.9439   YY=   -43.8455   ZZ=   -40.9913
   XY=     5.7019   XZ=    -4.3269   YZ=    -1.3950

  Exact polarizability:  67.719   8.009  71.815  -3.237  -4.402  56.556
 Approx polarizability:  86.449   7.587 118.574  -2.840 -15.787  82.501

 ******    1 imaginary frequencies (negative Signs) ******

                     1                      2                      3
                     A                      A                      A
 Frequencies --  -555.9943                79.1408               104.5648
 Red. masses --    10.7560                 3.2228                 6.2816
 Frc consts  --     1.9590                 0.0119                 0.0405
 IR Inten    --   100.3899                 1.3090                 6.7990

                     4                      5                      6
                     A                      A                      A
 Frequencies --   182.0323               211.9960               231.5029
 Red. masses --     2.9797                 1.0829                 1.1097
 Frc consts  --     0.0582                 0.0287                 0.0350
 IR Inten    --     2.3193                 0.1670                 1.9509

                     7                      8                      9
                     A                      A                      A
 Frequencies --   266.9086               303.6966               349.8977
 Red. masses --     3.7415                 3.5649                 2.7352
 Frc consts  --     0.1570                 0.1937                 0.1973
 IR Inten    --     7.2224                 8.8772                 1.2929

                    10                     11                     12
                     A                      A                      A
 Frequencies --   397.9892               428.7345               498.1838
 Red. masses --     1.3853                 4.4436                 3.0452
 Frc consts  --     0.1293                 0.4812                 0.4453
 IR Inten    --   174.1042                11.7101                 3.6421

                    13                     14                     15
                     A                      A                      A
 Frequencies --   616.7636               813.7599               933.6367
 Red. masses --     3.2681                 3.0898                 1.3732
 Frc consts  --     0.7324                 1.2055                 0.7053
 IR Inten    --     4.2357                 6.4691                 5.8754

                    16                     17                     18
                     A                      A                      A
 Frequencies --   947.2319               967.9168               974.3871
 Red. masses --     1.5653                 3.8526                 1.7405
 Frc consts  --     0.8275                 2.1266                 0.9736
 IR Inten    --     8.4003               130.2035                23.9197

                    19                     20                     21
                     A                      A                      A
 Frequencies --  1076.0728              1144.8998              1169.8926
 Red. masses --     1.3056                 2.3083                 1.4325
 Frc consts  --     0.8907                 1.7827                 1.1551
 IR Inten    --     9.5881                 6.7832                 9.4090

                    22                     23                     24
                     A                      A                      A
 Frequencies --  1206.3185              1308.7383              1334.3170
 Red. masses --     1.8237                 1.5513                 1.6260
 Frc consts  --     1.5636                 1.5655                 1.7057
 IR Inten    --     0.4268                17.2174                28.2399

                    25                     26                     27
                     A                      A                      A
 Frequencies --  1344.3812              1397.2067              1409.5422
 Red. masses --     1.6508                 1.2641                 1.3580
 Frc consts  --     1.7578                 1.4540                 1.5896
 IR Inten    --     5.3230                18.0951                16.4698

                    28                     29                     30
                     A                      A                      A
 Frequencies --  1413.8576              1442.6942              1491.1140
 Red. masses --     1.1207                 1.6963                 1.0448
 Frc consts  --     1.3199                 2.0802                 1.3687
 IR Inten    --    47.1150                64.1191                 2.1597

                    31                     32                     33
                     A                      A                      A
 Frequencies --  1496.8015              1503.6409              1516.7688
 Red. masses --     1.0520                 1.0425                 1.0643
 Frc consts  --     1.3887                 1.3887                 1.4426
 IR Inten    --     2.2123                15.7652                19.7791

                    34                     35                     36
                     A                      A                      A
 Frequencies --  2963.2690              2990.0330              3027.3835
 Red. masses --     1.0843                 1.0822                 1.0360
 Frc consts  --     5.6099                 5.7004                 5.5944
 IR Inten    --    51.6686                18.8515                27.8934

                    37                     38                     39
                     A                      A                      A
 Frequencies --  3035.9347              3087.1127              3095.1272
 Red. masses --     1.0360                 1.1000                 1.1025
 Frc consts  --     5.6257                 6.1767                 6.2227
 IR Inten    --    18.1625                31.9997                14.3302

                    40                     41                     42
                     A                      A                      A
 Frequencies --  3102.2813              3117.9284              3725.4297
 Red. masses --     1.1020                 1.1008                 1.0686
 Frc consts  --     6.2486                 6.3049                 8.7379
 IR Inten    --    35.3929                12.4782                98.7485

 - Thermochemistry -
 -------------------
 Temperature   298.150 Kelvin.  Pressure   1.00000 Atm.
 Atom  1 has atomic number  6 and mass  12.00000

 Molecular mass:   105.05517 amu.
 Principal axes and moments of inertia in atomic units:
                           1         2         3
     EIGENVALUES --   494.79861 959.300561150.47492
           X            0.93946  -0.33187   0.08534
           Y            0.33249   0.94308   0.00729
           Z           -0.08290   0.02152   0.99633
 This molecule is an asymmetric top.
 Rotational symmetry number  1.
 Warning -- assumption of classical behavior for rotation
           may cause significant error
 Rotational temperatures (Kelvin)      0.17505     0.09029     0.07529
 Rotational constants (GHZ):           3.64743     1.88131     1.56869
    1 imaginary frequencies ignored.
 Zero-point vibrational energy     339195.7 (Joules/Mol)
                                   81.06971 (Kcal/Mol)
 Warning -- explicit consideration of  12 degrees of freedom as
           vibrations may cause significant error
 Vibrational temperatures:    113.87   150.45   261.90   305.01   333.08
          (Kelvin)            384.02   436.95   503.42   572.62   616.85
                              716.77   887.38  1170.82  1343.29  1362.85
                             1392.61  1401.92  1548.23  1647.25  1683.21
                             1735.62  1882.98  1919.78  1934.26  2010.27
                             2028.01  2034.22  2075.71  2145.38  2153.56
                             2163.40  2182.29  4263.48  4301.99  4355.72
                             4368.03  4441.66  4453.19  4463.49  4486.00
                             5360.06

 Zero-point correction=                           0.129193 (Hartree/Particle)
 Thermal correction to Energy=                    0.137792
 Thermal correction to Enthalpy=                  0.138736
 Thermal correction to Gibbs Free Energy=         0.095665
 Sum of electronic and zero-point Energies=           -383.322106
 Sum of electronic and thermal Energies=              -383.313507
 Sum of electronic and thermal Enthalpies=            -383.312563
 Sum of electronic and thermal Free Energies=         -383.355634

                     E (Thermal)             CV                S
                      KCal/Mol        Cal/Mol-Kelvin    Cal/Mol-Kelvin
 Total                   86.466             29.876             90.651
 Electronic               0.000              0.000              1.377
 Translational            0.889              2.981             39.865
 Rotational               0.889              2.981             27.793
 Vibrational             84.688             23.915             21.616
 Vibration  1             0.600              1.963              3.912
 Vibration  2             0.605              1.946              3.367
 Vibration  3             0.630              1.864              2.307
 Vibration  4             0.643              1.823              2.026
 Vibration  5             0.653              1.793              1.867
 Vibration  6             0.672              1.734              1.616
 Vibration  7             0.695              1.667              1.396
 Vibration  8             0.727              1.575              1.167
 Vibration  9             0.764              1.474              0.970
 Vibration 10             0.790              1.408              0.863
 Vibration 11             0.854              1.254              0.663
 Vibration 12             0.976              0.996              0.422

 Optimization completed.
    -- Stationary point found.
 Normal termination of Gaussian 03 at Fri Jul 11 15:28:19 2014.
