 Gaussian 03, Revision D.01,
 Gaussian 03:  AM64L-G03RevD.01 13-Oct-2005

 -------------------------------------
 # freq nosymm b3lyp/cbsb7 iop(7/33=1)
 -------------------------------------

 -------------------
 Title Card Required
 -------------------
 Symbolic Z-matrix:
 Charge =  0 Multiplicity = 2

                          Input orientation:
 ---------------------------------------------------------------------
 Center     Atomic     Atomic              Coordinates (Angstroms)
 Number     Number      Type              X           Y           Z
 ---------------------------------------------------------------------
    1          8             0       -3.946485    2.195074    0.434806
    2          1             0       -4.242131    1.377449   -0.011059
    3          8             0       -2.541735    2.057091    0.366730
    4          6             0       -2.180426    0.799319   -0.010251
    5          8             0       -3.012572    0.011177   -0.431048
    6          6             0       -0.678581    0.754106   -0.322028
    7          1             0       -0.169625    1.390587    0.408471
    8          6             0       -0.487637    1.351221   -1.735508
    9          1             0       -0.855017    2.379467   -1.782809
   10          1             0        0.575562    1.348331   -1.992774
   11          1             0       -1.025038    0.748847   -2.474717
   12          6             0       -0.155186   -0.686569   -0.243514
   13          1             0        0.896339   -0.714456   -0.542671
   14          1             0       -0.233519   -1.089069    0.771048
   15          1             0       -0.728409   -1.333018   -0.914014
   16          1             0       -2.050291    0.201021    1.501633
 ---------------------------------------------------------------------

 SCF Done:  E(UB+HF-LYP) =  -383.441266948     A.U. after   19 cycles

 Alpha  occ. eigenvalues --  -19.22499 -19.18749 -19.13649 -10.32149 -10.21319
 Alpha  occ. eigenvalues --  -10.18079 -10.17761  -1.19052  -1.07082  -0.94568
 Alpha  occ. eigenvalues --   -0.82080  -0.70647  -0.66985  -0.60905  -0.53705
 Alpha  occ. eigenvalues --   -0.52776  -0.50403  -0.46596  -0.44819  -0.42845
 Alpha  occ. eigenvalues --   -0.41148  -0.40171  -0.39503  -0.38462  -0.36588
 Alpha  occ. eigenvalues --   -0.36384  -0.31703  -0.30124  -0.27508
 Alpha virt. eigenvalues --   -0.00475   0.00619   0.04410   0.07274   0.08082
 Alpha virt. eigenvalues --    0.09164   0.10216   0.11394   0.13417   0.14074
 Alpha virt. eigenvalues --    0.17356   0.19197   0.21649   0.23433   0.26309

  Beta  occ. eigenvalues --  -19.22281 -19.18706 -19.13008 -10.32317 -10.21230
  Beta  occ. eigenvalues --  -10.18068 -10.17752  -1.18734  -1.06072  -0.94268
  Beta  occ. eigenvalues --   -0.81905  -0.70593  -0.66686  -0.60779  -0.53282
  Beta  occ. eigenvalues --   -0.51113  -0.49956  -0.46410  -0.44598  -0.42504
  Beta  occ. eigenvalues --   -0.40880  -0.39945  -0.38548  -0.37748  -0.36529
  Beta  occ. eigenvalues --   -0.35810  -0.30797  -0.28061
  Beta virt. eigenvalues --   -0.13436   0.00743   0.01114   0.04847   0.07364
  Beta virt. eigenvalues --    0.08105   0.09388   0.10291   0.11431   0.13485
  Beta virt. eigenvalues --    0.14124   0.17615   0.19478   0.21816   0.23713

 Mulliken atomic charges:
              1
     1  O   -0.217423
     2  H    0.261067
     3  O   -0.173253
     4  C    0.314062
     5  O   -0.355242
     6  C   -0.227422
     7  H    0.146208
     8  C   -0.277483
     9  H    0.128799
    10  H    0.118462
    11  H    0.122474
    12  C   -0.261679
    13  H    0.113669
    14  H    0.110089
    15  H    0.129246
    16  H    0.068425
 Sum of Mulliken charges=   0.00000

 Dipole moment (field-independent basis, Debye):
    X=     2.1358    Y=    -0.6998    Z=    -0.5290  Tot=     2.3090
 Quadrupole moment (field-independent basis, Debye-Ang):
   XX=   -49.5133   YY=   -49.2992   ZZ=   -43.1014
   XY=     3.9179   XZ=     1.1472   YZ=    -2.7008

  Exact polarizability:  68.682  -7.203  61.030  -3.722  -1.008  58.115
 Approx polarizability:  94.785  -2.763  92.592   1.855   5.911  81.475

 ******    1 imaginary frequencies (negative Signs) ******

                     1                      2                      3
                     A                      A                      A
 Frequencies -- -1030.3892                39.6830                94.0789
 Red. masses --     1.3789                 4.1798                 6.9398
 Frc consts  --     0.8626                 0.0039                 0.0362
 IR Inten    --    43.3380                 0.1699                 0.8384

                     4                      5                      6
                     A                      A                      A
 Frequencies --   201.6728               243.6782               261.4222
 Red. masses --     3.4047                 1.0360                 1.4940
 Frc consts  --     0.0816                 0.0362                 0.0602
 IR Inten    --     1.6279                 0.0631                 3.1101

                     7                      8                      9
                     A                      A                      A
 Frequencies --   296.7391               340.3585               364.6971
 Red. masses --     1.7109                 2.6414                 3.0623
 Frc consts  --     0.0888                 0.1803                 0.2400
 IR Inten    --     1.9517                 4.4202                41.5504

                    10                     11                     12
                     A                      A                      A
 Frequencies --   413.5644               456.9004               522.9288
 Red. masses --     1.3432                 2.4644                 1.2696
 Frc consts  --     0.1354                 0.3031                 0.2045
 IR Inten    --    74.7859                 0.0461                11.0986

                    13                     14                     15
                     A                      A                      A
 Frequencies --   607.3102               669.7391               775.1320
 Red. masses --     1.2494                 2.1525                 3.1489
 Frc consts  --     0.2715                 0.5689                 1.1147
 IR Inten    --     4.4811                 0.5617                23.2328

                    16                     17                     18
                     A                      A                      A
 Frequencies --   867.6325               938.2580               946.7909
 Red. masses --     2.8390                 3.1415                 1.2689
 Frc consts  --     1.2592                 1.6294                 0.6701
 IR Inten    --     0.5260                23.3428                 5.6962

                    19                     20                     21
                     A                      A                      A
 Frequencies --   972.4602               994.6912              1107.1323
 Red. masses --     1.6173                 5.4000                 2.0496
 Frc consts  --     0.9011                 3.1479                 1.4802
 IR Inten    --     1.0614                31.4290                23.8112

                    22                     23                     24
                     A                      A                      A
 Frequencies --  1115.7106              1149.1657              1195.3757
 Red. masses --     2.1147                 3.2008                 1.8861
 Frc consts  --     1.5510                 2.4904                 1.5879
 IR Inten    --    16.7187                82.3145                 4.8294

                    25                     26                     27
                     A                      A                      A
 Frequencies --  1334.0632              1358.0035              1397.9864
 Red. masses --     1.3301                 1.5325                 1.2144
 Frc consts  --     1.3948                 1.6652                 1.3983
 IR Inten    --     1.8301                 2.4442                 5.0720

                    28                     29                     30
                     A                      A                      A
 Frequencies --  1419.2470              1487.8269              1492.4197
 Red. masses --     1.2158                 1.0443                 1.1674
 Frc consts  --     1.4428                 1.3621                 1.5320
 IR Inten    --     9.7095                 4.9904               104.8222

                    31                     32                     33
                     A                      A                      A
 Frequencies --  1494.8026              1501.5299              1515.5253
 Red. masses --     1.0561                 1.0472                 1.0536
 Frc consts  --     1.3903                 1.3911                 1.4258
 IR Inten    --    14.9036                13.9943                18.5180

                    34                     35                     36
                     A                      A                      A
 Frequencies --  1690.9355              3020.8726              3023.9247
 Red. masses --     7.5657                 1.0335                 1.0345
 Frc consts  --    12.7455                 5.5567                 5.5733
 IR Inten    --    99.7553                20.1996                13.6358

                    37                     38                     39
                     A                      A                      A
 Frequencies --  3049.8827              3088.9426              3091.2704
 Red. masses --     1.0852                 1.1020                 1.1031
 Frc consts  --     5.9474                 6.1952                 6.2105
 IR Inten    --     4.0041                24.2618                 8.2506

                    40                     41                     42
                     A                      A                      A
 Frequencies --  3100.8229              3102.4875              3577.3493
 Red. masses --     1.1029                 1.1024                 1.0656
 Frc consts  --     6.2480                 6.2516                 8.0347
 IR Inten    --    21.9775                22.6608                41.7737

 - Thermochemistry -
 -------------------
 Temperature   298.150 Kelvin.  Pressure   1.00000 Atm.
 Atom  1 has atomic number  8 and mass  15.99491

 Molecular mass:   105.05517 amu.
 Principal axes and moments of inertia in atomic units:
                           1         2         3
     EIGENVALUES --   381.301471047.775091191.96853
           X            0.84884   0.33588   0.40824
           Y           -0.44469   0.87124   0.20781
           Z           -0.28587  -0.35794   0.88891
 This molecule is an asymmetric top.
 Rotational symmetry number  1.
 Rotational temperatures (Kelvin)      0.22715     0.08266     0.07266
 Rotational constants (GHZ):           4.73311     1.72245     1.51408
    1 imaginary frequencies ignored.
 Zero-point vibrational energy     324923.8 (Joules/Mol)
                                   77.65865 (Kcal/Mol)
 Warning -- explicit consideration of  12 degrees of freedom as
           vibrations may cause significant error
 Vibrational temperatures:     57.09   135.36   290.16   350.60   376.13
          (Kelvin)            426.94   489.70   524.72   595.03   657.38
                              752.38   873.78   963.60  1115.24  1248.33
                             1349.94  1362.22  1399.15  1431.14  1592.91
                             1605.26  1653.39  1719.88  1919.42  1953.86
                             2011.39  2041.98  2140.65  2147.26  2150.68
                             2160.36  2180.50  2432.88  4346.36  4350.75
                             4388.10  4444.29  4447.64  4461.39  4463.78
                             5147.00

 Zero-point correction=                           0.123757 (Hartree/Particle)
 Thermal correction to Energy=                    0.132364
 Thermal correction to Enthalpy=                  0.133308
 Thermal correction to Gibbs Free Energy=         0.089931
 Sum of electronic and zero-point Energies=           -383.317510
 Sum of electronic and thermal Energies=              -383.308903
 Sum of electronic and thermal Enthalpies=            -383.307959
 Sum of electronic and thermal Free Energies=         -383.351336

                     E (Thermal)             CV                S
                      KCal/Mol        Cal/Mol-Kelvin    Cal/Mol-Kelvin
 Total                   83.060             30.744             91.294
 Electronic               0.000              0.000              1.377
 Translational            0.889              2.981             39.865
 Rotational               0.889              2.981             27.656
 Vibrational             81.282             24.782             22.395
 Vibration  1             0.594              1.981              5.275
 Vibration  2             0.603              1.953              3.573
 Vibration  3             0.639              1.838              2.118
 Vibration  4             0.659              1.773              1.776
 Vibration  5             0.669              1.743              1.652
 Vibration  6             0.690              1.680              1.435
 Vibration  7             0.720              1.595              1.210
 Vibration  8             0.738              1.545              1.102
 Vibration  9             0.777              1.441              0.914
 Vibration 10             0.815              1.346              0.775
 Vibration 11             0.878              1.199              0.603
 Vibration 12             0.966              1.016              0.437

 Normal termination of Gaussian 03 at Tue Jul 15 23:04:17 2014.
