 Gaussian 03, Revision D.01,
 Gaussian 03:  AM64L-G03RevD.01 13-Oct-2005

 -------------------------------------
 # freq nosymm b3lyp/cbsb7 iop(7/33=1)
 -------------------------------------

 -------------------
 Title Card Required
 -------------------
 Symbolic Z-matrix:
 Charge =  0 Multiplicity = 2

                          Input orientation:
 ---------------------------------------------------------------------
 Center     Atomic     Atomic              Coordinates (Angstroms)
 Number     Number      Type              X           Y           Z
 ---------------------------------------------------------------------
    1          6             0       -0.467332    1.497564    0.169246
    2          6             0       -0.323293    2.145463    1.522674
    3          1             0       -0.358936    1.304619    2.233536
    4          6             0       -1.451834    3.127570    1.833156
    5          1             0       -1.434893    3.970951    1.138408
    6          1             0       -2.428812    2.649481    1.744270
    7          1             0       -1.348201    3.518660    2.847906
    8          6             0        1.080359    2.774829    1.637797
    9          1             0        1.247161    3.136483    2.654390
   10          1             0        1.868469    2.053921    1.404372
   11          1             0        1.182571    3.624070    0.956526
   12          8             0       -1.381700    1.718023   -0.601029
   13          1             0        0.324872    0.781127   -0.116848
   14          8             0        0.016374   -0.374054   -2.446430
   15          8             0       -1.101430    0.218166   -2.852618
   16          1             0       -1.339466    0.824278   -2.103851
 ---------------------------------------------------------------------

 SCF Done:  E(UB+HF-LYP) =  -383.496246526     A.U. after   17 cycles

 Alpha  occ. eigenvalues --  -19.20549 -19.17462 -19.15575 -10.28553 -10.21006
 Alpha  occ. eigenvalues --  -10.19014 -10.17742  -1.17014  -1.08494  -0.84113
 Alpha  occ. eigenvalues --   -0.83007  -0.71280  -0.67372  -0.57464  -0.55021
 Alpha  occ. eigenvalues --   -0.51114  -0.48237  -0.47663  -0.46776  -0.45274
 Alpha  occ. eigenvalues --   -0.43101  -0.41251  -0.40730  -0.39541  -0.37060
 Alpha  occ. eigenvalues --   -0.36477  -0.30280  -0.27678  -0.26347
 Alpha virt. eigenvalues --   -0.05818   0.02862   0.06134   0.06533   0.08153
 Alpha virt. eigenvalues --    0.09375   0.09706   0.10263   0.12807   0.13406
 Alpha virt. eigenvalues --    0.16178   0.17305   0.19799   0.23201   0.26251

  Beta  occ. eigenvalues --  -19.19586 -19.15580 -19.15461 -10.28554 -10.21007
  Beta  occ. eigenvalues --  -10.19014 -10.17742  -1.14236  -1.08482  -0.83068
  Beta  occ. eigenvalues --   -0.79927  -0.71280  -0.67366  -0.57464  -0.54180
  Beta  occ. eigenvalues --   -0.50714  -0.48003  -0.47598  -0.43803  -0.43085
  Beta  occ. eigenvalues --   -0.41259  -0.40777  -0.39534  -0.38518  -0.37059
  Beta  occ. eigenvalues --   -0.36466  -0.29958  -0.24802
  Beta virt. eigenvalues --   -0.09681  -0.05792   0.02869   0.06161   0.06540
  Beta virt. eigenvalues --    0.08216   0.09498   0.09944   0.10884   0.13052
  Beta virt. eigenvalues --    0.13462   0.16789   0.17612   0.19919   0.23205

 Mulliken atomic charges:
              1
     1  C    0.221055
     2  C   -0.262170
     3  H    0.142693
     4  C   -0.255333
     5  H    0.115663
     6  H    0.121325
     7  H    0.110808
     8  C   -0.289205
     9  H    0.125150
    10  H    0.118776
    11  H    0.121835
    12  O   -0.335596
    13  H    0.111460
    14  O   -0.185523
    15  O   -0.157956
    16  H    0.297020
 Sum of Mulliken charges=   0.00000

 Dipole moment (field-independent basis, Debye):
    X=     0.7450    Y=     2.0055    Z=     4.2087  Tot=     4.7213
 Quadrupole moment (field-independent basis, Debye-Ang):
   XX=   -43.9528   YY=   -40.0199   ZZ=   -49.0262
   XY=     1.8830   XZ=    -1.0108   YZ=     1.1113

  Exact polarizability:  60.799  -5.033  52.462   5.949   7.608  60.988
 Approx polarizability:  88.354 -10.749  71.408  13.045   1.525  80.811

                     1                      2                      3
                     A                      A                      A
 Frequencies --    31.8878                58.0337                73.2785
 Red. masses --     5.0794                 5.5771                 5.7547
 Frc consts  --     0.0030                 0.0111                 0.0182
 IR Inten    --     1.3003                 0.0826                 4.5878

                     4                      5                      6
                     A                      A                      A
 Frequencies --   107.9668               138.5645               200.0038
 Red. masses --     3.1421                 6.0725                 1.0525
 Frc consts  --     0.0216                 0.0687                 0.0248
 IR Inten    --     3.5084                 0.8863                 0.1799

                     7                      8                      9
                     A                      A                      A
 Frequencies --   227.6210               236.3475               312.5696
 Red. masses --     3.8712                 1.1752                 4.0254
 Frc consts  --     0.1182                 0.0387                 0.2317
 IR Inten    --    20.7539                 5.2345                34.4379

                    10                     11                     12
                     A                      A                      A
 Frequencies --   347.2026               409.5528               648.1529
 Red. masses --     2.2497                 2.1088                 3.1454
 Frc consts  --     0.1598                 0.2084                 0.7785
 IR Inten    --     1.3792                 5.9195                22.4330

                    13                     14                     15
                     A                      A                      A
 Frequencies --   674.6108               799.1969               920.8965
 Red. masses --     1.0872                 3.2127                 1.4974
 Frc consts  --     0.2915                 1.2090                 0.7482
 IR Inten    --   111.5569                16.7002                20.2210

                    16                     17                     18
                     A                      A                      A
 Frequencies --   938.1126               953.0571               974.6168
 Red. masses --     1.4365                 1.2503                 1.4953
 Frc consts  --     0.7448                 0.6691                 0.8369
 IR Inten    --     9.9078                 9.9069                 1.7380

                    19                     20                     21
                     A                      A                      A
 Frequencies --  1133.0638              1159.8714              1193.8607
 Red. masses --     1.9489                 1.9841                14.1704
 Frc consts  --     1.4742                 1.5727                11.8998
 IR Inten    --     6.1698                 2.2782                18.5791

                    22                     23                     24
                     A                      A                      A
 Frequencies --  1201.2366              1299.1171              1358.0404
 Red. masses --     1.7160                 1.3827                 1.7224
 Frc consts  --     1.4589                 1.3749                 1.8716
 IR Inten    --     0.3745                 1.4963                 2.0156

                    25                     26                     27
                     A                      A                      A
 Frequencies --  1405.3606              1412.4929              1433.5244
 Red. masses --     1.2256                 1.1987                 1.2323
 Frc consts  --     1.4261                 1.4091                 1.4920
 IR Inten    --     7.6633                 0.6926                 9.2877

                    28                     29                     30
                     A                      A                      A
 Frequencies --  1487.0951              1493.0618              1505.9919
 Red. masses --     1.0409                 1.0475                 1.0423
 Frc consts  --     1.3562                 1.3758                 1.3928
 IR Inten    --     0.6937                 4.1236                12.1159

                    31                     32                     33
                     A                      A                      A
 Frequencies --  1510.7701              1562.8903              1765.1919
 Red. masses --     1.0648                 1.1036                 9.8636
 Frc consts  --     1.4319                 1.5883                18.1080
 IR Inten    --    11.3953                77.1581               210.6144

                    34                     35                     36
                     A                      A                      A
 Frequencies --  2955.6606              2977.6265              3030.3600
 Red. masses --     1.0848                 1.0820                 1.0348
 Frc consts  --     5.5837                 5.6522                 5.5989
 IR Inten    --    18.8352                18.9445                21.6680

                    37                     38                     39
                     A                      A                      A
 Frequencies --  3040.1571              3095.0593              3102.6861
 Red. masses --     1.0355                 1.1026                 1.1024
 Frc consts  --     5.6391                 6.2233                 6.2528
 IR Inten    --    15.6869                22.2864                 8.6223

                    40                     41                     42
                     A                      A                      A
 Frequencies --  3106.7251              3113.7568              3318.7789
 Red. masses --     1.1019                 1.1019                 1.0703
 Frc consts  --     6.2660                 6.2945                 6.9457
 IR Inten    --    36.5765                20.8432               894.0844

 - Thermochemistry -
 -------------------
 Temperature   298.150 Kelvin.  Pressure   1.00000 Atm.
 Atom  1 has atomic number  6 and mass  12.00000

 Molecular mass:   105.05517 amu.
 Principal axes and moments of inertia in atomic units:
                           1         2         3
     EIGENVALUES --   342.893741848.755702104.12655
           X            0.06880   0.97072   0.23017
           Y            0.53936  -0.23028   0.80998
           Z            0.83926   0.06842  -0.53941
 This molecule is an asymmetric top.
 Rotational symmetry number  1.
 Rotational temperatures (Kelvin)      0.25260     0.04685     0.04116
 Rotational constants (GHZ):           5.26327     0.97619     0.85772
 Zero-point vibrational energy     339225.4 (Joules/Mol)
                                   81.07681 (Kcal/Mol)
 Warning -- explicit consideration of  11 degrees of freedom as
           vibrations may cause significant error
 Vibrational temperatures:     45.88    83.50   105.43   155.34   199.36
          (Kelvin)            287.76   327.50   340.05   449.72   499.55
                              589.25   932.55   970.61  1149.86  1324.96
                             1349.73  1371.24  1402.25  1630.22  1668.79
                             1717.70  1728.31  1869.14  1953.91  2022.00
                             2032.26  2062.52  2139.60  2148.18  2166.78
                             2173.66  2248.65  2539.71  4252.53  4284.14
                             4360.01  4374.10  4453.09  4464.07  4469.88
                             4480.00  4774.98

 Zero-point correction=                           0.129204 (Hartree/Particle)
 Thermal correction to Energy=                    0.139213
 Thermal correction to Enthalpy=                  0.140157
 Thermal correction to Gibbs Free Energy=         0.091982
 Sum of electronic and zero-point Energies=           -383.367042
 Sum of electronic and thermal Energies=              -383.357034
 Sum of electronic and thermal Enthalpies=            -383.356089
 Sum of electronic and thermal Free Energies=         -383.404264

                     E (Thermal)             CV                S
                      KCal/Mol        Cal/Mol-Kelvin    Cal/Mol-Kelvin
 Total                   87.357             31.929            101.393
 Electronic               0.000              0.000              1.377
 Translational            0.889              2.981             39.865
 Rotational               0.889              2.981             28.680
 Vibrational             85.580             25.967             31.470
 Vibration  1             0.594              1.983              5.708
 Vibration  2             0.596              1.974              4.523
 Vibration  3             0.599              1.967              4.063
 Vibration  4             0.606              1.943              3.305
 Vibration  5             0.614              1.915              2.824
 Vibration  6             0.638              1.840              2.133
 Vibration  7             0.651              1.799              1.898
 Vibration  8             0.655              1.785              1.830
 Vibration  9             0.701              1.650              1.349
 Vibration 10             0.725              1.581              1.179
 Vibration 11             0.774              1.449              0.928

 Normal termination of Gaussian 03 at Wed Jul 16 14:04:28 2014.
