 Gaussian 03, Revision D.01,
 Gaussian 03:  AM64L-G03RevD.01 13-Oct-2005

 -------------------------------------
 # freq nosymm b3lyp/cbsb7 iop(7/33=1)
 -------------------------------------

 -------------------
 Title Card Required
 -------------------
 Symbolic Z-matrix:
 Charge =  0 Multiplicity = 2

                          Input orientation:
 ---------------------------------------------------------------------
 Center     Atomic     Atomic              Coordinates (Angstroms)
 Number     Number      Type              X           Y           Z
 ---------------------------------------------------------------------
    1          6             0        0.886006   -0.077722   -0.289983
    2          6             0        2.373590   -0.421697   -0.123221
    3          6             0        0.001160   -1.192007    0.379121
    4          6             0        0.625777    1.295123    0.212120
    5          8             0       -1.226885   -1.416625   -0.209140
    6          8             0       -2.117393   -0.017697    0.080788
    7          8             0       -0.511333    1.947212    0.054317
    8          1             0        0.616405   -0.131981   -1.355894
    9          1             0        2.645682   -0.479665    0.935453
   10          1             0        3.007507    0.335923   -0.589861
   11          1             0        2.604772   -1.384678   -0.584000
   12          1             0        0.522384   -2.144038    0.215022
   13          1             0       -0.084374   -1.025350    1.464150
   14          1             0        1.396541    1.857277    0.729953
   15          1             0       -2.829557   -0.237319   -0.534145
   16          1             0       -1.247316    1.282552   -0.110851
 ---------------------------------------------------------------------

 SCF Done:  E(UB+HF-LYP) =  -383.457072962     A.U. after   22 cycles

 Alpha  occ. eigenvalues --  -19.16064 -19.15185 -19.14839 -10.23876 -10.22689
 Alpha  occ. eigenvalues --  -10.19476 -10.17695  -1.07306  -1.05207  -0.94771
 Alpha  occ. eigenvalues --   -0.80959  -0.68124  -0.67114  -0.60293  -0.53601
 Alpha  occ. eigenvalues --   -0.50226  -0.48069  -0.46629  -0.45198  -0.43021
 Alpha  occ. eigenvalues --   -0.41162  -0.39937  -0.39572  -0.36273  -0.35024
 Alpha  occ. eigenvalues --   -0.34494  -0.31902  -0.26254  -0.15636
 Alpha virt. eigenvalues --   -0.09611   0.04302   0.04871   0.07293   0.07969
 Alpha virt. eigenvalues --    0.08940   0.10386   0.12103   0.13290   0.15734
 Alpha virt. eigenvalues --    0.17935   0.19446   0.21195   0.24233   0.25015

  Beta  occ. eigenvalues --  -19.15552 -19.14708 -19.14433 -10.22965 -10.22617
  Beta  occ. eigenvalues --  -10.19557 -10.17686  -1.06357  -1.04110  -0.93860
  Beta  occ. eigenvalues --   -0.80524  -0.67514  -0.66057  -0.59917  -0.53004
  Beta  occ. eigenvalues --   -0.49192  -0.47341  -0.46094  -0.44504  -0.42712
  Beta  occ. eigenvalues --   -0.40577  -0.39316  -0.38113  -0.35627  -0.34607
  Beta  occ. eigenvalues --   -0.33386  -0.31302  -0.25765
  Beta virt. eigenvalues --   -0.06999  -0.03773   0.04413   0.05065   0.07461
  Beta virt. eigenvalues --    0.08063   0.09209   0.10632   0.12280   0.13385
  Beta virt. eigenvalues --    0.16067   0.18333   0.19826   0.21259   0.24417

 Mulliken atomic charges:
              1
     1  C   -0.265749
     2  C   -0.307546
     3  C    0.068115
     4  C    0.090832
     5  O   -0.265176
     6  O   -0.399105
     7  O   -0.306703
     8  H    0.133093
     9  H    0.114340
    10  H    0.119047
    11  H    0.114365
    12  H    0.128293
    13  H    0.100270
    14  H    0.118202
    15  H    0.269351
    16  H    0.288371
 Sum of Mulliken charges=   0.00000

 Dipole moment (field-independent basis, Debye):
    X=     1.4518    Y=    -0.6422    Z=    -0.6534  Tot=     1.7167
 Quadrupole moment (field-independent basis, Debye-Ang):
   XX=   -38.3720   YY=   -47.1638   ZZ=   -42.8687
   XY=    -1.0493   XZ=     3.4714   YZ=    -0.3335

  Exact polarizability: 106.232  25.306  92.936   4.420   2.536  47.810
 Approx polarizability: 189.803  77.083 190.874  12.999  12.816  70.682

 ******    1 imaginary frequencies (negative Signs) ******

                     1                      2                      3
                     A                      A                      A
 Frequencies --  -762.9637                77.3773               140.8649
 Red. masses --     7.0733                 4.0397                 2.9195
 Frc consts  --     2.4260                 0.0143                 0.0341
 IR Inten    --  2132.3029                 2.4899                 7.3802

                     4                      5                      6
                     A                      A                      A
 Frequencies --   209.1575               247.8979               272.7738
 Red. masses --     1.1415                 2.7512                 3.9711
 Frc consts  --     0.0294                 0.0996                 0.1741
 IR Inten    --     1.3274                 7.8996                13.9246

                     7                      8                      9
                     A                      A                      A
 Frequencies --   335.1803               340.7150               361.7204
 Red. masses --     2.0364                 1.5515                 4.2115
 Frc consts  --     0.1348                 0.1061                 0.3247
 IR Inten    --     0.8012                72.4558                43.1736

                    10                     11                     12
                     A                      A                      A
 Frequencies --   416.4457               477.9280               527.7095
 Red. masses --     1.6756                 4.6928                 2.5332
 Frc consts  --     0.1712                 0.6315                 0.4156
 IR Inten    --     2.6274                 5.0949                 1.7949

                    13                     14                     15
                     A                      A                      A
 Frequencies --   564.3754               825.7304               896.3808
 Red. masses --     2.1930                 2.2081                 1.5646
 Frc consts  --     0.4116                 0.8870                 0.7407
 IR Inten    --    14.7764                 8.6577                22.7149

                    16                     17                     18
                     A                      A                      A
 Frequencies --   911.9903               941.7916              1014.8033
 Red. masses --     1.3789                 1.5857                 1.5810
 Frc consts  --     0.6757                 0.8287                 0.9593
 IR Inten    --   108.5592                11.4457                 9.9770

                    19                     20                     21
                     A                      A                      A
 Frequencies --  1050.7908              1104.3160              1131.3040
 Red. masses --     2.0824                 2.5365                 1.9222
 Frc consts  --     1.3547                 1.8225                 1.4495
 IR Inten    --     2.9288                 1.5605                17.4956

                    22                     23                     24
                     A                      A                      A
 Frequencies --  1161.1047              1235.3196              1276.3627
 Red. masses --     1.7896                 1.2866                 1.2220
 Frc consts  --     1.4215                 1.1568                 1.1729
 IR Inten    --    23.8464                10.4439                 1.3237

                    25                     26                     27
                     A                      A                      A
 Frequencies --  1288.9997              1313.0244              1348.2385
 Red. masses --     1.5985                 1.5103                 1.1692
 Frc consts  --     1.5648                 1.5341                 1.2522
 IR Inten    --   193.9611                 8.5573                 4.3087

                    28                     29                     30
                     A                      A                      A
 Frequencies --  1413.8312              1427.0766              1445.6608
 Red. masses --     1.2129                 1.4212                 1.5586
 Frc consts  --     1.4284                 1.7053                 1.9192
 IR Inten    --     2.6903                51.5254                51.1884

                    31                     32                     33
                     A                      A                      A
 Frequencies --  1496.5538              1505.9089              1540.4244
 Red. masses --     1.0445                 1.0487                 1.2182
 Frc consts  --     1.3783                 1.4012                 1.7031
 IR Inten    --     7.5658                 6.2961               115.6634

                    34                     35                     36
                     A                      A                      A
 Frequencies --  2854.1743              2962.4748              2971.2092
 Red. masses --     1.0851                 1.0679                 1.0759
 Frc consts  --     5.2083                 5.5221                 5.5963
 IR Inten    --   254.6946                14.3802                52.0562

                    37                     38                     39
                     A                      A                      A
 Frequencies --  3027.3617              3036.3304              3089.8683
 Red. masses --     1.0364                 1.0964                 1.1001
 Frc consts  --     5.5962                 5.9556                 6.1884
 IR Inten    --    24.1662                10.2150                28.6206

                    40                     41                     42
                     A                      A                      A
 Frequencies --  3102.4259              3168.4357              3813.2676
 Red. masses --     1.1026                 1.0898                 1.0680
 Frc consts  --     6.2527                 6.4457                 9.1503
 IR Inten    --    13.1203                 3.1888               150.8395

 - Thermochemistry -
 -------------------
 Temperature   298.150 Kelvin.  Pressure   1.00000 Atm.
 Atom  1 has atomic number  6 and mass  12.00000

 Molecular mass:   105.05517 amu.
 Principal axes and moments of inertia in atomic units:
                           1         2         3
     EIGENVALUES --   555.32250 812.082191292.11018
           X            0.99635  -0.08388   0.01553
           Y            0.08441   0.99575  -0.03686
           Z           -0.01237   0.03804   0.99920
 This molecule is an asymmetric top.
 Rotational symmetry number  1.
 Warning -- assumption of classical behavior for rotation
           may cause significant error
 Rotational temperatures (Kelvin)      0.15597     0.10666     0.06703
 Rotational constants (GHZ):           3.24990     2.22236     1.39674
    1 imaginary frequencies ignored.
 Zero-point vibrational energy     336912.1 (Joules/Mol)
                                   80.52393 (Kcal/Mol)
 Warning -- explicit consideration of  12 degrees of freedom as
           vibrations may cause significant error
 Vibrational temperatures:    111.33   202.67   300.93   356.67   392.46
          (Kelvin)            482.25   490.21   520.43   599.17   687.63
                              759.26   812.01  1188.04  1289.69  1312.15
                             1355.03  1460.07  1511.85  1588.86  1627.69
                             1670.57  1777.35  1836.40  1854.58  1889.15
                             1939.81  2034.19  2053.24  2079.98  2153.20
                             2166.66  2216.32  4106.52  4262.34  4274.90
                             4355.69  4368.60  4445.63  4463.69  4558.67
                             5486.43

 Zero-point correction=                           0.128323 (Hartree/Particle)
 Thermal correction to Energy=                    0.136550
 Thermal correction to Enthalpy=                  0.137494
 Thermal correction to Gibbs Free Energy=         0.095378
 Sum of electronic and zero-point Energies=           -383.328750
 Sum of electronic and thermal Energies=              -383.320523
 Sum of electronic and thermal Enthalpies=            -383.319579
 Sum of electronic and thermal Free Energies=         -383.361695

                     E (Thermal)             CV                S
                      KCal/Mol        Cal/Mol-Kelvin    Cal/Mol-Kelvin
 Total                   85.686             29.696             88.642
 Electronic               0.000              0.000              1.377
 Translational            0.889              2.981             39.865
 Rotational               0.889              2.981             27.857
 Vibrational             83.909             23.734             19.542
 Vibration  1             0.599              1.964              3.956
 Vibration  2             0.615              1.912              2.792
 Vibration  3             0.642              1.827              2.051
 Vibration  4             0.662              1.766              1.745
 Vibration  5             0.676              1.724              1.579
 Vibration  6             0.716              1.605              1.235
 Vibration  7             0.720              1.594              1.209
 Vibration  8             0.736              1.551              1.115
 Vibration  9             0.780              1.435              0.904
 Vibration 10             0.834              1.299              0.716
 Vibration 11             0.883              1.189              0.592
 Vibration 12             0.920              1.108              0.515

 Optimization completed.
    -- Stationary point found.
 Normal termination of Gaussian 03 at Tue Jun 18 11:00:19 2013.
