 Gaussian 03, Revision D.01,
 Gaussian 03:  AM64L-G03RevD.01 13-Oct-2005

 -------------------------------------
 # freq nosymm b3lyp/cbsb7 iop(7/33=1)
 -------------------------------------

 -------
 NBO NRT
 -------
 Symbolic Z-matrix:
 Charge =  0 Multiplicity = 1

                          Input orientation:
 ---------------------------------------------------------------------
 Center     Atomic     Atomic              Coordinates (Angstroms)
 Number     Number      Type              X           Y           Z
 ---------------------------------------------------------------------
    1          8             0        7.786700   -1.485140   -2.516970
    2          6             0        8.653720   -0.952910   -1.635610
    3          8             0        8.935460    0.208580   -1.560640
    4          1             0        7.448360   -0.756320   -3.061220
    5          1             0        9.059480   -1.751310   -0.999140
 ---------------------------------------------------------------------

 SCF Done:  E(RB+HF-LYP) =  -189.819479640     A.U. after   13 cycles

 Alpha  occ. eigenvalues --  -19.18038 -19.12447 -10.31226  -1.12334  -1.03783
 Alpha  occ. eigenvalues --   -0.67305  -0.52760  -0.49621  -0.45759  -0.41459
 Alpha  occ. eigenvalues --   -0.33946  -0.29880
 Alpha virt. eigenvalues --   -0.00819   0.03400   0.07179   0.21197   0.23924
 Alpha virt. eigenvalues --    0.35686   0.37808   0.42533   0.44816   0.58067
 Alpha virt. eigenvalues --    0.62328   0.73098   0.77315   0.79756   0.84698

 Mulliken atomic charges:
              1
     1  O   -0.292790
     2  C    0.259488
     3  O   -0.316021
     4  H    0.249507
     5  H    0.099815
 Sum of Mulliken charges=   0.00000

 Dipole moment (field-independent basis, Debye):
    X=    -0.7288    Y=    -1.0653    Z=    -0.6087  Tot=     1.4270
 Quadrupole moment (field-independent basis, Debye-Ang):
   XX=   -28.6617   YY=   -18.2924   ZZ=   -12.6898
   XY=   -11.1862   XZ=    -2.6962   YZ=     0.0300

  Exact polarizability:  14.856   1.766  20.844   5.164  -0.286  16.017
 Approx polarizability:  20.255   5.438  34.431   7.055   1.679  20.833

                     1                      2                      3
                     A                      A                      A
 Frequencies --   632.7663               700.8772              1057.8380
 Red. masses --     3.4599                 1.2604                 1.5711
 Frc consts  --     0.8162                 0.3648                 1.0359
 IR Inten    --    47.4342               150.1540                 1.5512

                     4                      5                      6
                     A                      A                      A
 Frequencies --  1132.0029              1310.2550              1411.1699
 Red. masses --     3.5004                 1.7074                 1.1380
 Frc consts  --     2.6428                 1.7270                 1.3352
 IR Inten    --   252.3335                 7.1045                 3.5279

                     7                      8                      9
                     A                      A                      A
 Frequencies --  1836.0841              3043.3116              3737.2687
 Red. masses --     8.1793                 1.0917                 1.0637
 Frc consts  --    16.2462                 5.9573                 8.7537
 IR Inten    --   339.4292                54.2389                50.0629

 - Thermochemistry -
 -------------------
 Temperature   298.150 Kelvin.  Pressure   1.00000 Atm.
 Atom  1 has atomic number  8 and mass  15.99491

 Molecular mass:    46.00548 amu.
 Principal axes and moments of inertia in atomic units:
                           1         2         3
     EIGENVALUES --    23.14603 149.75659 172.90262
           X            0.52597  -0.40725   0.74666
           Y            0.72215   0.67760  -0.13913
           Z            0.44928  -0.61238  -0.65050
 This molecule is an asymmetric top.
 Rotational symmetry number  1.
 Rotational temperatures (Kelvin)      3.74206     0.57836     0.50094
 Rotational constants (GHZ):          77.97196    12.05116    10.43791
 Zero-point vibrational energy      88892.0 (Joules/Mol)
                                   21.24569 (Kcal/Mol)
 Vibrational temperatures:    910.41  1008.40  1521.99  1628.70  1885.16
          (Kelvin)           2030.36  2641.71  4378.64  5377.09

 Zero-point correction=                           0.033857 (Hartree/Particle)
 Thermal correction to Energy=                    0.037015
 Thermal correction to Enthalpy=                  0.037959
 Thermal correction to Gibbs Free Energy=         0.009783
 Sum of electronic and zero-point Energies=           -189.785622
 Sum of electronic and thermal Energies=              -189.782464
 Sum of electronic and thermal Enthalpies=            -189.781520
 Sum of electronic and thermal Free Energies=         -189.809696

                     E (Thermal)             CV                S
                      KCal/Mol        Cal/Mol-Kelvin    Cal/Mol-Kelvin
 Total                   23.227              8.591             59.302
 Electronic               0.000              0.000              0.000
 Translational            0.889              2.981             37.404
 Rotational               0.889              2.981             21.021
 Vibrational             21.450              2.630              0.876

 Optimization completed.
    -- Stationary point found.
 Normal termination of Gaussian 03 at Sun Mar 10 16:32:33 2019.
