 Gaussian 03, Revision D.01,
 Gaussian 03:  AM64L-G03RevD.01 13-Oct-2005

 -----------------------------------
 # freq nosymm bmk/cbsb7 iop(7/33=1)
 -----------------------------------

 -------------------
 Title Card Required
 -------------------
 Symbolic Z-matrix:
 Charge =  0 Multiplicity = 1

                          Input orientation:
 ---------------------------------------------------------------------
 Center     Atomic     Atomic              Coordinates (Angstroms)
 Number     Number      Type              X           Y           Z
 ---------------------------------------------------------------------
    1          8             0       -3.884088    1.874352    1.059011
    2          1             0       -4.220883    1.338544    0.314251
    3          8             0       -2.488328    1.658839    0.947729
    4          6             0       -2.182918    0.838711   -0.065716
    5          8             0       -3.028234    0.371063   -0.781269
    6          6             0       -0.689600    0.591682   -0.147727
    7          1             0       -0.201331    1.260463    0.567260
    8          6             0       -0.201830    0.893367   -1.577509
    9          1             0       -0.370728    1.940176   -1.847029
   10          1             0        0.869877    0.687283   -1.652030
   11          1             0       -0.732620    0.261407   -2.295269
   12          6             0       -0.415970   -0.875994    0.245567
   13          1             0        0.658144   -1.076881    0.195059
   14          1             0       -0.757946   -1.086812    1.263227
   15          1             0       -0.931552   -1.551637   -0.443423
 ---------------------------------------------------------------------

 SCF Done:  E(RBMK+HF-BMK) =  -382.726616688     A.U. after   16 cycles

 Alpha  occ. eigenvalues --  -19.63610 -19.59389 -19.53536 -10.61937 -10.50006
 Alpha  occ. eigenvalues --  -10.47054 -10.46838  -1.28983  -1.15871  -1.03433
 Alpha  occ. eigenvalues --   -0.89458  -0.77351  -0.73024  -0.66977  -0.59191
 Alpha  occ. eigenvalues --   -0.56115  -0.55933  -0.51780  -0.49747  -0.47284
 Alpha  occ. eigenvalues --   -0.45821  -0.45385  -0.42970  -0.42821  -0.40329
 Alpha  occ. eigenvalues --   -0.39991  -0.35525  -0.33767
 Alpha virt. eigenvalues --    0.02665   0.05537   0.07891   0.12539   0.12960
 Alpha virt. eigenvalues --    0.13172   0.14972   0.16120   0.17523   0.19079
 Alpha virt. eigenvalues --    0.19945   0.23241   0.25910   0.29562   0.32330

 Mulliken atomic charges:
              1
     1  O   -0.234223
     2  H    0.284560
     3  O   -0.182149
     4  C    0.459777
     5  O   -0.404224
     6  C   -0.293308
     7  H    0.178539
     8  C   -0.337461
     9  H    0.143185
    10  H    0.138181
    11  H    0.151059
    12  C   -0.341024
    13  H    0.141050
    14  H    0.145797
    15  H    0.150242
 Sum of Mulliken charges=   0.00000

 Dipole moment (field-independent basis, Debye):
    X=     2.2428    Y=    -0.8267    Z=    -0.6539  Tot=     2.4781
 Quadrupole moment (field-independent basis, Debye-Ang):
   XX=   -48.1948   YY=   -45.0557   ZZ=   -45.3137
   XY=     3.4760   XZ=     1.6208   YZ=    -3.7779

  Exact polarizability:  63.316  -5.789  50.442  -4.471   3.306  52.212
 Approx polarizability:  75.031  -1.989  61.168   0.621   8.738  65.751

                     1                      2                      3
                     A                      A                      A
 Frequencies --    15.9767               159.3238               215.3067
 Red. masses --     4.8592                 3.8575                 1.1717
 Frc consts  --     0.0007                 0.0577                 0.0320
 IR Inten    --     0.0058                 0.1256                 0.0800

                     4                      5                      6
                     A                      A                      A
 Frequencies --   238.7245               283.5433               300.2504
 Red. masses --     1.9803                 1.3642                 3.4689
 Frc consts  --     0.0665                 0.0646                 0.1843
 IR Inten    --     0.0764                 0.3720                 0.3158

                     7                      8                      9
                     A                      A                      A
 Frequencies --   312.2445               443.0522               465.2263
 Red. masses --     2.9861                 4.0502                 1.1385
 Frc consts  --     0.1715                 0.4684                 0.1452
 IR Inten    --     1.7165                26.8972               102.9927

                    10                     11                     12
                     A                      A                      A
 Frequencies --   501.1010               685.6425               787.8661
 Red. masses --     4.5779                 2.8548                 5.6562
 Frc consts  --     0.6773                 0.7907                 2.0686
 IR Inten    --     4.9253                 0.6070                21.0560

                    13                     14                     15
                     A                      A                      A
 Frequencies --   892.9164               943.7050               967.6452
 Red. masses --     2.8517                 1.1460                 5.3290
 Frc consts  --     1.3396                 0.6013                 2.9399
 IR Inten    --     0.2451                 3.4272                17.7613

                    16                     17                     18
                     A                      A                      A
 Frequencies --   983.9002              1024.5487              1134.7301
 Red. masses --     1.5053                 5.6251                 2.3512
 Frc consts  --     0.8586                 3.4789                 1.7837
 IR Inten    --     0.1031                28.3212                 1.2220

                    19                     20                     21
                     A                      A                      A
 Frequencies --  1138.0606              1202.1767              1229.9324
 Red. masses --     1.6738                 2.0761                 3.2652
 Frc consts  --     1.2773                 1.7678                 2.9102
 IR Inten    --    10.8038                24.2411               170.2598

                    22                     23                     24
                     A                      A                      A
 Frequencies --  1340.5966              1408.2722              1418.3713
 Red. masses --     1.3564                 1.2403                 1.7680
 Frc consts  --     1.4362                 1.4492                 2.0956
 IR Inten    --     0.4011                 6.3321                44.0790

                    25                     26                     27
                     A                      A                      A
 Frequencies --  1431.9838              1503.5509              1508.5384
 Red. masses --     1.2321                 1.0396                 1.0486
 Frc consts  --     1.4886                 1.3847                 1.4059
 IR Inten    --    21.4263                 3.3541                 2.3024

                    28                     29                     30
                     A                      A                      A
 Frequencies --  1521.3078              1531.4764              1662.8001
 Red. masses --     1.0474                 1.0684                 1.1466
 Frc consts  --     1.4282                 1.4764                 1.8679
 IR Inten    --    12.2093                19.3600               154.3426

                    31                     32                     33
                     A                      A                      A
 Frequencies --  1875.9982              3046.0622              3048.2942
 Red. masses --     7.8354                 1.0337                 1.0345
 Frc consts  --    16.2472                 5.6512                 5.6638
 IR Inten    --   176.6206                14.0970                 9.2521

                    34                     35                     36
                     A                      A                      A
 Frequencies --  3093.1707              3124.4700              3126.2483
 Red. masses --     1.0866                 1.1036                 1.1032
 Frc consts  --     6.1252                 6.3474                 6.3525
 IR Inten    --     1.4679                 8.0978                15.0841

                    37                     38                     39
                     A                      A                      A
 Frequencies --  3132.1510              3139.2519              3660.3635
 Red. masses --     1.1038                 1.1019                 1.0657
 Frc consts  --     6.3801                 6.3980                 8.4127
 IR Inten    --     2.7472                13.3055                75.3310

 - Thermochemistry -
 -------------------
 Temperature   298.150 Kelvin.  Pressure   1.00000 Atm.
 Atom  1 has atomic number  8 and mass  15.99491

 Molecular mass:   104.04734 amu.
 Principal axes and moments of inertia in atomic units:
                           1         2         3
     EIGENVALUES --   367.328531099.146771148.30520
           X            0.83366   0.20027   0.51469
           Y           -0.40236  -0.41813   0.81441
           Z           -0.37831   0.88603   0.26800
 This molecule is an asymmetric top.
 Rotational symmetry number  1.
 Rotational temperatures (Kelvin)      0.23579     0.07880     0.07543
 Rotational constants (GHZ):           4.91315     1.64195     1.57166
 Zero-point vibrational energy     325975.1 (Joules/Mol)
                                   77.90992 (Kcal/Mol)
 Warning -- explicit consideration of  10 degrees of freedom as
           vibrations may cause significant error
 Vibrational temperatures:     22.99   229.23   309.78   343.47   407.96
          (Kelvin)            431.99   449.25   637.45   669.36   720.97
                              986.49  1133.56  1284.71  1357.78  1392.22
                             1415.61  1474.10  1632.62  1637.41  1729.66
                             1769.60  1928.82  2026.19  2040.72  2060.30
                             2163.27  2170.45  2188.82  2203.45  2392.40
                             2699.14  4382.60  4385.81  4450.38  4495.41
                             4497.97  4506.46  4516.68  5266.44

 Zero-point correction=                           0.124157 (Hartree/Particle)
 Thermal correction to Energy=                    0.132118
 Thermal correction to Enthalpy=                  0.133062
 Thermal correction to Gibbs Free Energy=         0.090861
 Sum of electronic and zero-point Energies=           -382.602459
 Sum of electronic and thermal Energies=              -382.594499
 Sum of electronic and thermal Enthalpies=            -382.593554
 Sum of electronic and thermal Free Energies=         -382.635755

                     E (Thermal)             CV                S
                      KCal/Mol        Cal/Mol-Kelvin    Cal/Mol-Kelvin
 Total                   82.905             27.721             88.819
 Electronic               0.000              0.000              0.000
 Translational            0.889              2.981             39.836
 Rotational               0.889              2.981             27.630
 Vibrational             81.128             21.759             21.353
 Vibration  1             0.593              1.986              7.080
 Vibration  2             0.621              1.892              2.558
 Vibration  3             0.645              1.818              1.998
 Vibration  4             0.657              1.781              1.812
 Vibration  5             0.682              1.704              1.512
 Vibration  6             0.693              1.673              1.416
 Vibration  7             0.701              1.650              1.350
 Vibration  8             0.803              1.376              0.817
 Vibration  9             0.823              1.327              0.751
 Vibration 10             0.856              1.248              0.655

 Optimization completed.
    -- Stationary point found.
 Normal termination of Gaussian 03 at Tue Jul 15 17:29:39 2014.
