 Gaussian 03, Revision D.01,
 Gaussian 03:  AM64L-G03RevD.01 13-Oct-2005

 -------------------------------------
 # freq nosymm b3lyp/cbsb7 iop(7/33=1)
 -------------------------------------

 -------------------
 Title Card Required
 -------------------
 Symbolic Z-matrix:
 Charge =  0 Multiplicity = 2

                          Input orientation:
 ---------------------------------------------------------------------
 Center     Atomic     Atomic              Coordinates (Angstroms)
 Number     Number      Type              X           Y           Z
 ---------------------------------------------------------------------
    1          6             0       -1.059664   -0.054797    0.007264
    2          1             0       -1.889184   -0.166267   -0.697832
    3          1             0       -0.706663   -1.045962    0.307438
    4          6             0       -1.429109    0.771085    1.200624
    5          6             0       -0.718205    0.516003    2.492575
    6          1             0       -0.755866   -0.544092    2.767432
    7          1             0        0.351187    0.768953    2.419899
    8          1             0       -1.140857    1.095443    3.318184
    9          6             0       -2.149112    2.063576    0.996780
   10          1             0       -2.887609    1.987861    0.197743
   11          1             0       -2.656950    2.385682    1.912410
   12          8             0       -1.256236    3.133994    0.553149
   13          1             0       -0.618544    3.297089    1.257086
   14          8             0        0.066428    0.497437   -0.713307
   15          8             0       -0.424144    1.548668   -1.578614
   16          1             0       -0.503162    2.298784   -0.955054
 ---------------------------------------------------------------------

 SCF Done:  E(UB+HF-LYP) =  -383.466372840     A.U. after   17 cycles

 Alpha  occ. eigenvalues --  -19.16527 -19.14492 -19.14491 -10.23483 -10.22213
 Alpha  occ. eigenvalues --  -10.20079 -10.18398  -1.10438  -1.04226  -0.89773
 Alpha  occ. eigenvalues --   -0.81076  -0.71165  -0.68489  -0.57848  -0.53222
 Alpha  occ. eigenvalues --   -0.51693  -0.48896  -0.47025  -0.44714  -0.43158
 Alpha  occ. eigenvalues --   -0.42442  -0.41346  -0.39204  -0.37023  -0.35477
 Alpha  occ. eigenvalues --   -0.30790  -0.28578  -0.26667  -0.21799
 Alpha virt. eigenvalues --    0.01498   0.03329   0.05360   0.07164   0.07796
 Alpha virt. eigenvalues --    0.09265   0.10357   0.10820   0.14222   0.15261
 Alpha virt. eigenvalues --    0.16125   0.17188   0.20515   0.26259   0.28129

  Beta  occ. eigenvalues --  -19.16295 -19.14497 -19.14250 -10.23562 -10.22296
  Beta  occ. eigenvalues --  -10.18751 -10.18468  -1.10157  -1.03673  -0.89430
  Beta  occ. eigenvalues --   -0.79353  -0.70897  -0.68231  -0.56619  -0.52743
  Beta  occ. eigenvalues --   -0.51411  -0.48454  -0.46356  -0.43738  -0.42425
  Beta  occ. eigenvalues --   -0.42253  -0.40815  -0.38948  -0.36714  -0.35118
  Beta  occ. eigenvalues --   -0.30243  -0.28035  -0.26382
  Beta virt. eigenvalues --   -0.08618   0.01743   0.03515   0.05500   0.07188
  Beta virt. eigenvalues --    0.07842   0.09440   0.10498   0.11075   0.14551
  Beta virt. eigenvalues --    0.15614   0.16791   0.18420   0.21509   0.26756

 Mulliken atomic charges:
              1
     1  C    0.031996
     2  H    0.119997
     3  H    0.115112
     4  C   -0.154412
     5  C   -0.283880
     6  H    0.126343
     7  H    0.129416
     8  H    0.110735
     9  C   -0.017549
    10  H    0.128997
    11  H    0.118758
    12  O   -0.421915
    13  H    0.250146
    14  O   -0.244014
    15  O   -0.279872
    16  H    0.270142
 Sum of Mulliken charges=   0.00000

 Dipole moment (field-independent basis, Debye):
    X=    -1.2468    Y=     0.0096    Z=     3.9509  Tot=     4.1429
 Quadrupole moment (field-independent basis, Debye-Ang):
   XX=   -41.1531   YY=   -41.3133   ZZ=   -42.9349
   XY=     0.7621   XZ=    -0.9439   YZ=     6.2015

  Exact polarizability:  51.215  -2.634  60.739  -0.285  -3.144  63.747
 Approx polarizability:  74.066  -2.212  84.745  -0.161  -6.683  84.012

                     1                      2                      3
                     A                      A                      A
 Frequencies --    61.7051               102.7702               113.8787
 Red. masses --     3.5205                 1.4173                 1.7130
 Frc consts  --     0.0079                 0.0088                 0.0131
 IR Inten    --     1.3774                 0.2001                 2.1557

                     4                      5                      6
                     A                      A                      A
 Frequencies --   176.7648               233.7297               277.5408
 Red. masses --     4.6694                 6.2119                 4.7197
 Frc consts  --     0.0860                 0.1999                 0.2142
 IR Inten    --     5.7367                 9.1710                 9.1410

                     7                      8                      9
                     A                      A                      A
 Frequencies --   349.1606               402.5854               427.6139
 Red. masses --     1.8168                 1.3738                 2.1055
 Frc consts  --     0.1305                 0.1312                 0.2268
 IR Inten    --    11.2223                90.4569                 3.7504

                    10                     11                     12
                     A                      A                      A
 Frequencies --   470.4873               593.9126               722.8956
 Red. masses --     3.2546                 3.6456                 1.0569
 Frc consts  --     0.4245                 0.7576                 0.3254
 IR Inten    --     7.2655                 6.1966               146.3118

                    13                     14                     15
                     A                      A                      A
 Frequencies --   777.2739               847.4610               908.6685
 Red. masses --     3.1219                 5.3300                 7.1232
 Frc consts  --     1.1113                 2.2554                 3.4653
 IR Inten    --     5.9054                18.4223                88.8764

                    16                     17                     18
                     A                      A                      A
 Frequencies --   943.7334               954.0233               988.5016
 Red. masses --     2.8925                 2.5469                 1.6627
 Frc consts  --     1.5178                 1.3658                 0.9573
 IR Inten    --     8.0697                 3.3399                16.1561

                    19                     20                     21
                     A                      A                      A
 Frequencies --   998.7936              1006.7317              1146.5464
 Red. masses --     1.5728                 1.9641                 1.2552
 Frc consts  --     0.9244                 1.1728                 0.9722
 IR Inten    --     0.6700                10.6337                37.5499

                    22                     23                     24
                     A                      A                      A
 Frequencies --  1240.7600              1295.8258              1328.1365
 Red. masses --     1.5950                 2.2615                 1.3860
 Frc consts  --     1.4468                 2.2374                 1.4404
 IR Inten    --     1.6771                 2.9770                 6.5380

                    25                     26                     27
                     A                      A                      A
 Frequencies --  1339.7303              1365.2963              1396.7535
 Red. masses --     1.2356                 1.4673                 1.2366
 Frc consts  --     1.3067                 1.6114                 1.4214
 IR Inten    --     9.0935                 0.9169                19.0767

                    28                     29                     30
                     A                      A                      A
 Frequencies --  1403.6058              1462.5080              1473.6313
 Red. masses --     1.2027                 1.1113                 1.0572
 Frc consts  --     1.3960                 1.4004                 1.3527
 IR Inten    --    19.0861                 6.5425                 8.2513

                    31                     32                     33
                     A                      A                      A
 Frequencies --  1489.2166              1490.1160              1501.6594
 Red. masses --     1.0802                 1.0894                 1.0969
 Frc consts  --     1.4114                 1.4252                 1.4573
 IR Inten    --     8.4436                30.6082                 9.9679

                    34                     35                     36
                     A                      A                      A
 Frequencies --  2963.3737              3023.5191              3027.8874
 Red. masses --     1.0546                 1.0649                 1.0631
 Frc consts  --     5.4566                 5.7357                 5.7427
 IR Inten    --    17.5013                45.5235                15.8733

                    37                     38                     39
                     A                      A                      A
 Frequencies --  3031.9795              3079.7266              3082.9778
 Red. masses --     1.0727                 1.1015                 1.1053
 Frc consts  --     5.8103                 6.1554                 6.1898
 IR Inten    --    40.5807                16.8347                27.1781

                    40                     41                     42
                     A                      A                      A
 Frequencies --  3103.5205              3557.9813              3816.2761
 Red. masses --     1.0990                 1.0691                 1.0666
 Frc consts  --     6.2368                 7.9737                 9.1525
 IR Inten    --    22.0058               209.7153                26.9872

 - Thermochemistry -
 -------------------
 Temperature   298.150 Kelvin.  Pressure   1.00000 Atm.
 Atom  1 has atomic number  6 and mass  12.00000

 Molecular mass:   105.05517 amu.
 Principal axes and moments of inertia in atomic units:
                           1         2         3
     EIGENVALUES --   580.78561 774.575211140.47070
           X           -0.31141  -0.27427   0.90983
           Y            0.08287   0.94596   0.31353
           Z            0.94665  -0.17304   0.27185
 This molecule is an asymmetric top.
 Rotational symmetry number  1.
 Warning -- assumption of classical behavior for rotation
           may cause significant error
 Rotational temperatures (Kelvin)      0.14913     0.11182     0.07595
 Rotational constants (GHZ):           3.10741     2.32998     1.58245
 Zero-point vibrational energy     346793.0 (Joules/Mol)
                                   82.88551 (Kcal/Mol)
 Warning -- explicit consideration of  11 degrees of freedom as
           vibrations may cause significant error
 Vibrational temperatures:     88.78   147.86   163.85   254.32   336.28
          (Kelvin)            399.32   502.36   579.23   615.24   676.93
                              854.51  1040.08  1118.32  1219.31  1307.37
                             1357.82  1372.63  1422.23  1437.04  1448.46
                             1649.62  1785.17  1864.40  1910.89  1927.57
                             1964.35  2009.61  2019.47  2104.22  2120.22
                             2142.65  2143.94  2160.55  4263.63  4350.16
                             4356.45  4362.34  4431.03  4435.71  4465.27
                             5119.14  5490.76

 Zero-point correction=                           0.132086 (Hartree/Particle)
 Thermal correction to Energy=                    0.140711
 Thermal correction to Enthalpy=                  0.141655
 Thermal correction to Gibbs Free Energy=         0.098165
 Sum of electronic and zero-point Energies=           -383.334286
 Sum of electronic and thermal Energies=              -383.325662
 Sum of electronic and thermal Enthalpies=            -383.324718
 Sum of electronic and thermal Free Energies=         -383.368208

                     E (Thermal)             CV                S
                      KCal/Mol        Cal/Mol-Kelvin    Cal/Mol-Kelvin
 Total                   88.297             30.123             91.533
 Electronic               0.000              0.000              1.377
 Translational            0.889              2.981             39.865
 Rotational               0.889              2.981             27.731
 Vibrational             86.520             24.161             22.560
 Vibration  1             0.597              1.973              4.402
 Vibration  2             0.605              1.947              3.401
 Vibration  3             0.607              1.938              3.202
 Vibration  4             0.628              1.871              2.362
 Vibration  5             0.654              1.789              1.850
 Vibration  6             0.679              1.715              1.549
 Vibration  7             0.726              1.577              1.170
 Vibration  8             0.768              1.465              0.953
 Vibration  9             0.789              1.410              0.866
 Vibration 10             0.828              1.316              0.736
 Vibration 11             0.952              1.045              0.460

 Normal termination of Gaussian 03 at Tue Jun 18 12:08:02 2013.
