 Gaussian 03, Revision D.01,
 Gaussian 03:  AM64L-G03RevD.01 13-Oct-2005

 -------------------------------------
 # freq nosymm b3lyp/cbsb7 iop(7/33=1)
 -------------------------------------

 -------------------
 Title Card Required
 -------------------
 Symbolic Z-matrix:
 Charge =  0 Multiplicity = 2

                          Input orientation:
 ---------------------------------------------------------------------
 Center     Atomic     Atomic              Coordinates (Angstroms)
 Number     Number      Type              X           Y           Z
 ---------------------------------------------------------------------
    1          8             0        0.000000    0.000000    0.000000
    2          1             0        0.000000    0.000000    0.968644
    3          6             0        1.305062    0.000000   -0.444841
    4          1             0        2.043820    0.452039    0.222533
    5          6             0        1.453489    0.159863   -1.925418
    6          1             0        0.795966   -0.584588   -2.400043
    7          6             0        0.992434    1.554901   -2.408565
    8          1             0        1.036009    1.626524   -3.502675
    9          1             0       -0.036162    1.752643   -2.091100
   10          1             0        1.634591    2.341865   -1.992962
   11          6             0        2.900966   -0.127991   -2.351506
   12          1             0        3.210303   -1.136332   -2.055563
   13          1             0        3.013749   -0.039573   -3.437870
   14          1             0        3.594926    0.585985   -1.888657
 ---------------------------------------------------------------------

 SCF Done:  E(UB+HF-LYP) =  -233.078526173     A.U. after   14 cycles

 Alpha  occ. eigenvalues --  -19.14508 -10.20866 -10.17415 -10.15751 -10.15474
 Alpha  occ. eigenvalues --   -1.05168  -0.79939  -0.68170  -0.66590  -0.56128
 Alpha  occ. eigenvalues --   -0.53296  -0.45610  -0.43837  -0.41452  -0.38538
 Alpha  occ. eigenvalues --   -0.38286  -0.37099  -0.34023  -0.33520  -0.32785
 Alpha  occ. eigenvalues --   -0.16791
 Alpha virt. eigenvalues --    0.03028   0.05208   0.07639   0.09334   0.11008
 Alpha virt. eigenvalues --    0.11904   0.12905   0.14316   0.15078   0.19866
 Alpha virt. eigenvalues --    0.22030   0.22629   0.24924   0.29263   0.31382

  Beta  occ. eigenvalues --  -19.14004 -10.19523 -10.17470 -10.15734 -10.15364
  Beta  occ. eigenvalues --   -1.04023  -0.79420  -0.68025  -0.64976  -0.55556
  Beta  occ. eigenvalues --   -0.52477  -0.45010  -0.43462  -0.40334  -0.38284
  Beta  occ. eigenvalues --   -0.37272  -0.35546  -0.33819  -0.32490  -0.32278
  Beta virt. eigenvalues --   -0.02622   0.03222   0.05272   0.07859   0.09570
  Beta virt. eigenvalues --    0.11120   0.12197   0.13074   0.14432   0.15196
  Beta virt. eigenvalues --    0.20178   0.22523   0.23195   0.25879   0.29716

 Mulliken atomic charges:
              1
     1  O   -0.334723
     2  H    0.250462
     3  C    0.014811
     4  H    0.084764
     5  C   -0.210195
     6  H    0.122948
     7  C   -0.271199
     8  H    0.101265
     9  H    0.117960
    10  H    0.092573
    11  C   -0.282373
    12  H    0.109733
    13  H    0.105916
    14  H    0.098058
 Sum of Mulliken charges=   0.00000

 Dipole moment (field-independent basis, Debye):
    X=     0.4658    Y=     0.3597    Z=     1.1888  Tot=     1.3265
 Quadrupole moment (field-independent basis, Debye-Ang):
   XX=   -33.3288   YY=   -34.1447   ZZ=   -30.0422
   XY=     0.7759   XZ=    -0.2418   YZ=     0.4058

  Exact polarizability:  52.430  -1.448  46.260  -3.580  -2.082  55.267
 Approx polarizability:  70.067   0.979  61.983  -1.577  -0.725  71.803

                     1                      2                      3
                     A                      A                      A
 Frequencies --   115.9743               251.5150               261.0210
 Red. masses --     3.3614                 2.2056                 1.0568
 Frc consts  --     0.0266                 0.0822                 0.0424
 IR Inten    --     1.6773                 3.5076                 0.2403

                     4                      5                      6
                     A                      A                      A
 Frequencies --   288.2761               351.2349               401.0358
 Red. masses --     1.1225                 2.2420                 1.6630
 Frc consts  --     0.0550                 0.1630                 0.1576
 IR Inten    --     1.8615                 0.1261                25.2810

                     7                      8                      9
                     A                      A                      A
 Frequencies --   492.0035               504.6972               683.0685
 Red. masses --     1.6187                 1.9925                 1.6946
 Frc consts  --     0.2309                 0.2990                 0.4659
 IR Inten    --    55.3572                53.2796                21.1853

                    10                     11                     12
                     A                      A                      A
 Frequencies --   827.0890               933.1762               940.5132
 Red. masses --     2.2679                 1.6009                 1.3658
 Frc consts  --     0.9141                 0.8214                 0.7118
 IR Inten    --     3.0690                 0.7494                 1.8661

                    13                     14                     15
                     A                      A                      A
 Frequencies --   968.8245              1102.4257              1125.1355
 Red. masses --     1.5322                 2.2267                 1.4243
 Frc consts  --     0.8473                 1.5944                 1.0623
 IR Inten    --     2.4221                14.1269                20.8696

                    16                     17                     18
                     A                      A                      A
 Frequencies --  1175.7450              1195.5110              1269.7690
 Red. masses --     2.7257                 1.9262                 1.4066
 Frc consts  --     2.2200                 1.6221                 1.3362
 IR Inten    --    57.7932                35.8499                59.8021

                    19                     20                     21
                     A                      A                      A
 Frequencies --  1339.1271              1346.0172              1393.7589
 Red. masses --     1.2483                 1.4078                 1.2130
 Frc consts  --     1.3190                 1.5028                 1.3883
 IR Inten    --     8.8479                23.9223                 4.2861

                    22                     23                     24
                     A                      A                      A
 Frequencies --  1417.2732              1452.2455              1491.5959
 Red. masses --     1.2689                 1.5377                 1.0469
 Frc consts  --     1.5018                 1.9108                 1.3723
 IR Inten    --     2.7441                 4.3595                 3.5550

                    25                     26                     27
                     A                      A                      A
 Frequencies --  1493.4021              1504.0936              1516.1680
 Red. masses --     1.0472                 1.0469                 1.0777
 Frc consts  --     1.3760                 1.3955                 1.4596
 IR Inten    --     0.8871                 8.7184                12.0061

                    28                     29                     30
                     A                      A                      A
 Frequencies --  2973.8598              2993.5412              2999.0879
 Red. masses --     1.0819                 1.0358                 1.0370
 Frc consts  --     5.6372                 5.4689                 5.4954
 IR Inten    --    11.8366                30.5103                30.9506

                    31                     32                     33
                     A                      A                      A
 Frequencies --  3050.7861              3057.4900              3065.3636
 Red. masses --     1.1015                 1.0976                 1.0888
 Frc consts  --     6.0404                 6.0451                 6.0277
 IR Inten    --     9.9186                40.7754                74.6759

                    34                     35                     36
                     A                      A                      A
 Frequencies --  3071.9092              3079.4180              3752.5905
 Red. masses --     1.1023                 1.1001                 1.0664
 Frc consts  --     6.1288                 6.1462                 8.8480
 IR Inten    --    33.4392                30.7629                55.6020

 - Thermochemistry -
 -------------------
 Temperature   298.150 Kelvin.  Pressure   1.00000 Atm.
 Atom  1 has atomic number  8 and mass  15.99491

 Molecular mass:    73.06534 amu.
 Principal axes and moments of inertia in atomic units:
                           1         2         3
     EIGENVALUES --   231.73085 513.42712 675.16357
           X           -0.64042  -0.57399   0.51029
           Y           -0.10812   0.72518   0.68002
           Z            0.76038  -0.38033   0.52648
 This molecule is an asymmetric top.
 Rotational symmetry number  1.
 Rotational temperatures (Kelvin)      0.37377     0.16870     0.12829
 Rotational constants (GHZ):           7.78809     3.51509     2.67304
 Zero-point vibrational energy     322302.3 (Joules/Mol)
                                   77.03211 (Kcal/Mol)
 Warning -- explicit consideration of   8 degrees of freedom as
           vibrations may cause significant error
 Vibrational temperatures:    166.86   361.87   375.55   414.76   505.35
          (Kelvin)            577.00   707.88   726.15   982.78  1190.00
                             1342.63  1353.19  1393.92  1586.14  1618.82
                             1691.63  1720.07  1826.91  1926.70  1936.62
                             2005.31  2039.14  2089.45  2146.07  2148.67
                             2164.05  2181.42  4278.72  4307.03  4315.01
                             4389.40  4399.04  4410.37  4419.79  4430.59
                             5399.13

 Zero-point correction=                           0.122758 (Hartree/Particle)
 Thermal correction to Energy=                    0.129286
 Thermal correction to Enthalpy=                  0.130230
 Thermal correction to Gibbs Free Energy=         0.092810
 Sum of electronic and zero-point Energies=           -232.955768
 Sum of electronic and thermal Energies=              -232.949241
 Sum of electronic and thermal Enthalpies=            -232.948296
 Sum of electronic and thermal Free Energies=         -232.985717

                     E (Thermal)             CV                S
                      KCal/Mol        Cal/Mol-Kelvin    Cal/Mol-Kelvin
 Total                   81.128             23.413             78.757
 Electronic               0.000              0.000              1.377
 Translational            0.889              2.981             38.783
 Rotational               0.889              2.981             25.888
 Vibrational             79.350             17.452             12.709
 Vibration  1             0.608              1.936              3.166
 Vibration  2             0.663              1.760              1.720
 Vibration  3             0.669              1.744              1.655
 Vibration  4             0.685              1.696              1.484
 Vibration  5             0.728              1.573              1.161
 Vibration  6             0.767              1.468              0.959
 Vibration  7             0.848              1.268              0.678
 Vibration  8             0.860              1.240              0.646

 Normal termination of Gaussian 03 at Fri Jun 20 10:59:44 2014.
