 Gaussian 03, Revision D.01,
 Gaussian 03:  AM64L-G03RevD.01 13-Oct-2005

 -------------------------------------
 # freq nosymm b3lyp/cbsb7 iop(7/33=1)
 -------------------------------------

 -------------------
 Title Card Required
 -------------------
 Symbolic Z-matrix:
 Charge =  0 Multiplicity = 2

                          Input orientation:
 ---------------------------------------------------------------------
 Center     Atomic     Atomic              Coordinates (Angstroms)
 Number     Number      Type              X           Y           Z
 ---------------------------------------------------------------------
    1          6             0       -0.418307    1.257709   -0.054695
    2          1             0        0.162228    2.167849   -0.204259
    3          1             0       -1.258074    1.230323   -0.758029
    4          6             0       -0.920779    1.151453    1.410689
    5          1             0       -0.039360    1.265152    2.052905
    6          6             0       -1.536887   -0.200494    1.661111
    7          1             0       -0.869910   -0.921723    0.648295
    8          1             0       -1.290467   -0.702506    2.593193
    9          1             0       -2.574105   -0.326731    1.350466
   10          6             0       -1.897156    2.308061    1.715061
   11          1             0       -2.768084    2.234977    1.058352
   12          1             0       -2.253283    2.225003    2.749279
   13          8             0       -1.328288    3.587265    1.463986
   14          1             0       -0.651685    3.749899    2.128957
   15          8             0        0.466138    0.180221   -0.315867
   16          8             0       -0.305365   -1.002920   -0.348672
 ---------------------------------------------------------------------

 SCF Done:  E(UB+HF-LYP) =  -383.439707449     A.U. after   19 cycles

 Alpha  occ. eigenvalues --  -19.18823 -19.17171 -19.13243 -10.23711 -10.23091
 Alpha  occ. eigenvalues --  -10.20025 -10.19536  -1.13686  -1.04006  -0.89650
 Alpha  occ. eigenvalues --   -0.82110  -0.69824  -0.67802  -0.60542  -0.53878
 Alpha  occ. eigenvalues --   -0.52614  -0.50836  -0.47342  -0.45188  -0.44611
 Alpha  occ. eigenvalues --   -0.42070  -0.40943  -0.38524  -0.36609  -0.35568
 Alpha  occ. eigenvalues --   -0.33309  -0.29924  -0.27046  -0.22900
 Alpha virt. eigenvalues --    0.01926   0.03956   0.04532   0.05925   0.07524
 Alpha virt. eigenvalues --    0.09960   0.11169   0.12020   0.12378   0.15000
 Alpha virt. eigenvalues --    0.18197   0.19586   0.20624   0.20982   0.22052

  Beta  occ. eigenvalues --  -19.18563 -19.16095 -19.13208 -10.23611 -10.23032
  Beta  occ. eigenvalues --  -10.20036 -10.18622  -1.12506  -1.03917  -0.87976
  Beta  occ. eigenvalues --   -0.81233  -0.68908  -0.66756  -0.59924  -0.52723
  Beta  occ. eigenvalues --   -0.52384  -0.50084  -0.46996  -0.44260  -0.44076
  Beta  occ. eigenvalues --   -0.41214  -0.39977  -0.37339  -0.36117  -0.34787
  Beta  occ. eigenvalues --   -0.31735  -0.29387  -0.25528
  Beta virt. eigenvalues --   -0.11968   0.01962   0.04611   0.04906   0.06055
  Beta virt. eigenvalues --    0.07734   0.10182   0.11246   0.12264   0.12491
  Beta virt. eigenvalues --    0.15356   0.18743   0.20141   0.20823   0.21458

 Mulliken atomic charges:
              1
     1  C    0.034705
     2  H    0.128704
     3  H    0.114928
     4  C   -0.255894
     5  H    0.122525
     6  C   -0.312943
     7  H    0.239975
     8  H    0.137310
     9  H    0.128460
    10  C    0.013586
    11  H    0.114563
    12  H    0.111583
    13  O   -0.386595
    14  H    0.236923
    15  O   -0.201800
    16  O   -0.226029
 Sum of Mulliken charges=   0.00000

 Dipole moment (field-independent basis, Debye):
    X=    -1.1475    Y=     1.3953    Z=     2.9122  Tot=     3.4270
 Quadrupole moment (field-independent basis, Debye-Ang):
   XX=   -41.9589   YY=   -46.3106   ZZ=   -36.9926
   XY=     3.6607   XZ=    -0.7646   YZ=     2.7041

  Exact polarizability:  57.931   0.856  68.530 -10.339   3.011  64.255
 Approx polarizability:  88.632   4.318  97.583 -15.474   4.161  93.231

 ******    1 imaginary frequencies (negative Signs) ******

                     1                      2                      3
                     A                      A                      A
 Frequencies -- -1624.7658                91.2804               142.2113
 Red. masses --     1.1178                 4.3371                 2.6672
 Frc consts  --     1.7385                 0.0213                 0.0318
 IR Inten    --   360.4963                 4.4374                 0.7000

                     4                      5                      6
                     A                      A                      A
 Frequencies --   210.5690               302.4564               334.8441
 Red. masses --     3.5705                 1.8194                 1.4596
 Frc consts  --     0.0933                 0.0981                 0.0964
 IR Inten    --     4.2376                53.5461                63.5692

                     7                      8                      9
                     A                      A                      A
 Frequencies --   387.3510               433.7807               454.1242
 Red. masses --     3.7609                 1.9174                 1.4569
 Frc consts  --     0.3325                 0.2126                 0.1770
 IR Inten    --    11.0744                14.1205                 1.3209

                    10                     11                     12
                     A                      A                      A
 Frequencies --   493.0195               557.1916               640.8260
 Red. masses --     4.8691                 3.5447                 2.4231
 Frc consts  --     0.6973                 0.6484                 0.5863
 IR Inten    --     5.7974                18.7416                 6.3360

                    13                     14                     15
                     A                      A                      A
 Frequencies --   827.3860               905.6484               934.2664
 Red. masses --     2.4576                 3.0187                 1.4826
 Frc consts  --     0.9912                 1.4588                 0.7624
 IR Inten    --    10.7132                32.2363                11.3606

                    16                     17                     18
                     A                      A                      A
 Frequencies --   944.7625               981.0085              1036.0288
 Red. masses --     1.6817                 2.0779                 5.9305
 Frc consts  --     0.8844                 1.1782                 3.7504
 IR Inten    --    21.6359                 2.0381                 7.5208

                    19                     20                     21
                     A                      A                      A
 Frequencies --  1054.1494              1075.7425              1088.5506
 Red. masses --     5.7165                 1.5189                 2.0909
 Frc consts  --     3.7427                 1.0356                 1.4597
 IR Inten    --    96.4195                10.3691                 9.9868

                    22                     23                     24
                     A                      A                      A
 Frequencies --  1112.6559              1148.0810              1215.9188
 Red. masses --     1.5824                 1.4816                 1.4796
 Frc consts  --     1.1543                 1.1506                 1.2889
 IR Inten    --    40.3358                13.4439                22.9124

                    25                     26                     27
                     A                      A                      A
 Frequencies --  1272.9207              1329.1100              1344.3929
 Red. masses --     1.2283                 1.2136                 1.2411
 Frc consts  --     1.1727                 1.2631                 1.3216
 IR Inten    --     3.0041                 6.0201                 2.0406

                    28                     29                     30
                     A                      A                      A
 Frequencies --  1363.4822              1392.2024              1406.0896
 Red. masses --     1.2340                 1.2855                 1.1937
 Frc consts  --     1.3517                 1.4680                 1.3905
 IR Inten    --     1.5220                 0.3208                47.9336

                    31                     32                     33
                     A                      A                      A
 Frequencies --  1460.9279              1478.1994              1506.7652
 Red. masses --     1.1396                 1.0963                 1.0855
 Frc consts  --     1.4331                 1.4114                 1.4520
 IR Inten    --     3.0060                 2.7656                 1.0786

                    34                     35                     36
                     A                      A                      A
 Frequencies --  1581.3212              3006.0268              3018.8844
 Red. masses --     1.0545                 1.0669                 1.0788
 Frc consts  --     1.5536                 5.6802                 5.7926
 IR Inten    --    35.3772                50.7246                 8.0148

                    37                     38                     39
                     A                      A                      A
 Frequencies --  3030.7827              3077.1526              3083.0017
 Red. masses --     1.0689                 1.0975                 1.0554
 Frc consts  --     5.7848                 6.1229                 5.9105
 IR Inten    --    36.7122                30.5697                17.8518

                    40                     41                     42
                     A                      A                      A
 Frequencies --  3128.1705              3175.1988              3825.6273
 Red. masses --     1.0998                 1.1121                 1.0664
 Frc consts  --     6.3406                 6.6058                 9.1953
 IR Inten    --     9.8139                11.9293                31.3315

 - Thermochemistry -
 -------------------
 Temperature   298.150 Kelvin.  Pressure   1.00000 Atm.
 Atom  1 has atomic number  6 and mass  12.00000

 Molecular mass:   105.05517 amu.
 Principal axes and moments of inertia in atomic units:
                           1         2         3
     EIGENVALUES --   351.052401139.084081393.51181
           X           -0.32854  -0.56753   0.75497
           Y            0.84244  -0.53749  -0.03744
           Z            0.42703   0.62372   0.65469
 This molecule is an asymmetric top.
 Rotational symmetry number  1.
 Rotational temperatures (Kelvin)      0.24673     0.07604     0.06216
 Rotational constants (GHZ):           5.14095     1.58438     1.29510
    1 imaginary frequencies ignored.
 Zero-point vibrational energy     334069.8 (Joules/Mol)
                                   79.84460 (Kcal/Mol)
 Warning -- explicit consideration of  10 degrees of freedom as
           vibrations may cause significant error
 Vibrational temperatures:    131.33   204.61   302.96   435.17   481.77
          (Kelvin)            557.31   624.11   653.38   709.34   801.67
                              922.00  1190.42  1303.02  1344.20  1359.30
                             1411.45  1490.61  1516.68  1547.75  1566.18
                             1600.86  1651.83  1749.43  1831.45  1912.29
                             1934.28  1961.74  2003.07  2023.05  2101.95
                             2126.80  2167.90  2275.17  4325.00  4343.50
                             4360.62  4427.33  4435.75  4500.73  4568.40
                             5504.22

 Zero-point correction=                           0.127240 (Hartree/Particle)
 Thermal correction to Energy=                    0.134741
 Thermal correction to Enthalpy=                  0.135685
 Thermal correction to Gibbs Free Energy=         0.094989
 Sum of electronic and zero-point Energies=           -383.312467
 Sum of electronic and thermal Energies=              -383.304966
 Sum of electronic and thermal Enthalpies=            -383.304022
 Sum of electronic and thermal Free Energies=         -383.344718

                     E (Thermal)             CV                S
                      KCal/Mol        Cal/Mol-Kelvin    Cal/Mol-Kelvin
 Total                   84.551             27.914             85.653
 Electronic               0.000              0.000              1.377
 Translational            0.889              2.981             39.865
 Rotational               0.889              2.981             27.813
 Vibrational             82.774             21.953             16.598
 Vibration  1             0.602              1.955              3.632
 Vibration  2             0.616              1.911              2.774
 Vibration  3             0.643              1.825              2.039
 Vibration  4             0.694              1.669              1.403
 Vibration  5             0.716              1.606              1.237
 Vibration  6             0.756              1.497              1.010
 Vibration  7             0.795              1.397              0.846
 Vibration  8             0.813              1.352              0.783
 Vibration  9             0.849              1.266              0.676
 Vibration 10             0.913              1.124              0.529

 Optimization completed.
    -- Stationary point found.
 Normal termination of Gaussian 03 at Tue Jun 18 11:05:36 2013.
