 Gaussian 03, Revision D.01,
 Gaussian 03:  AM64L-G03RevD.01 13-Oct-2005

 -----------------------------------
 # freq nosymm bmk/cbsb7 iop(7/33=1)
 -----------------------------------

 -------------------
 Title Card Required
 -------------------
 Symbolic Z-matrix:
 Charge =  0 Multiplicity = 2

                          Input orientation:
 ---------------------------------------------------------------------
 Center     Atomic     Atomic              Coordinates (Angstroms)
 Number     Number      Type              X           Y           Z
 ---------------------------------------------------------------------
    1          6             0       -1.004417   -2.283477    0.219175
    2          1             0       -0.494138   -3.184536   -0.094253
    3          1             0       -0.494205   -1.561402    0.842829
    4          1             0       -2.024044   -2.102435   -0.094099
 ---------------------------------------------------------------------

 SCF Done:  E(UBMK+HF-BMK) =  -39.8109412776     A.U. after   14 cycles

 Alpha  occ. eigenvalues --  -10.46747  -0.75247  -0.46608  -0.46600  -0.26820
 Alpha virt. eigenvalues --    0.10410   0.17010   0.17011   0.34841   0.34851
 Alpha virt. eigenvalues --    0.39945   0.45857   0.65215   0.65219   0.75166
 Alpha virt. eigenvalues --    1.11439   1.11448   1.47026   1.47042   1.48496

  Beta  occ. eigenvalues --  -10.45084  -0.70976  -0.45738  -0.45728
  Beta virt. eigenvalues --   -0.02878   0.11352   0.17408   0.17410   0.35479
  Beta virt. eigenvalues --    0.35491   0.42841   0.53179   0.67013   0.67018
  Beta virt. eigenvalues --    0.77229   1.15842   1.15858   1.48360   1.48372

 Mulliken atomic charges:
              1
     1  C   -0.420328
     2  H    0.140126
     3  H    0.140140
     4  H    0.140062
 Sum of Mulliken charges=   0.00000

 Dipole moment (field-independent basis, Debye):
    X=     0.0010    Y=     0.0016    Z=    -0.0024  Tot=     0.0030
 Quadrupole moment (field-independent basis, Debye-Ang):
   XX=    -7.3483   YY=    -7.5521   ZZ=    -8.3463
   XY=    -0.2869   XZ=     0.4920   YZ=     0.6990

  Exact polarizability:  12.178  -0.718  11.660   1.244   1.782   9.626
 Approx polarizability:  12.600  -0.759  12.064   1.314   1.860   9.917

                     1                      2                      3
                     A                      A                      A
 Frequencies --   500.4536              1416.9865              1421.4980
 Red. masses --     1.2356                 1.1021                 1.1019
 Frc consts  --     0.1823                 1.3038                 1.3118
 IR Inten    --    95.1155                 5.4406                 5.3437

                     4                      5                      6
                     A                      A                      A
 Frequencies --  3108.3520              3296.7573              3297.6876
 Red. masses --     1.0078                 1.1186                 1.1183
 Frc consts  --     5.7372                 7.1632                 7.1652
 IR Inten    --     0.0003                 1.6900                 1.6938

 - Thermochemistry -
 -------------------
 Temperature   298.150 Kelvin.  Pressure   1.00000 Atm.
 Atom  1 has atomic number  6 and mass  12.00000

 Molecular mass:    15.02348 amu.
 Principal axes and moments of inertia in atomic units:
                           1         2         3
     EIGENVALUES --     6.31757   6.32122  12.63876
           X           -0.16269   0.92866  -0.33334
           Y            0.88180  -0.01473  -0.47140
           Z            0.44268   0.37063   0.81650
 This molecule is an asymmetric top.
 Rotational symmetry number  1.
 Rotational temperatures (Kelvin)     13.70999    13.70208     6.85303
 Rotational constants (GHZ):         285.67023   285.50535   142.79419
 Zero-point vibrational energy      78006.9 (Joules/Mol)
                                   18.64410 (Kcal/Mol)
 Warning -- explicit consideration of   1 degrees of freedom as
           vibrations may cause significant error
 Vibrational temperatures:    720.04  2038.73  2045.22  4472.22  4743.29
          (Kelvin)           4744.63

 Zero-point correction=                           0.029711 (Hartree/Particle)
 Thermal correction to Energy=                    0.032781
 Thermal correction to Enthalpy=                  0.033726
 Thermal correction to Gibbs Free Energy=         0.009911
 Sum of electronic and zero-point Energies=            -39.781230
 Sum of electronic and thermal Energies=               -39.778160
 Sum of electronic and thermal Enthalpies=             -39.777216
 Sum of electronic and thermal Free Energies=          -39.801031

                     E (Thermal)             CV                S
                      KCal/Mol        Cal/Mol-Kelvin    Cal/Mol-Kelvin
 Total                   20.571              7.409             50.122
 Electronic               0.000              0.000              1.377
 Translational            0.889              2.981             34.068
 Rotational               0.889              2.981             13.987
 Vibrational             18.793              1.447              0.690
 Vibration  1             0.856              1.249              0.657

 Optimization completed.
    -- Stationary point found.
 Normal termination of Gaussian 03 at Fri Jul 11 15:41:53 2014.
