 Gaussian 03, Revision D.01,
 Gaussian 03:  AM64L-G03RevD.01 13-Oct-2005

 -------------------------------------
 # freq nosymm b3lyp/cbsb7 iop(7/33=1)
 -------------------------------------

 -------------------
 Title Card Required
 -------------------
 Symbolic Z-matrix:
 Charge =  0 Multiplicity = 2

                          Input orientation:
 ---------------------------------------------------------------------
 Center     Atomic     Atomic              Coordinates (Angstroms)
 Number     Number      Type              X           Y           Z
 ---------------------------------------------------------------------
    1          6             0       -3.263492    1.357177    0.163056
    2          1             0       -2.353235    1.781605    0.606455
    3          1             0       -3.433542    1.880620   -0.787017
    4          8             0       -4.297444    1.605460    1.095111
    5          1             0       -5.104097    1.235907    0.717166
    6          6             0       -3.009450   -0.106982   -0.109989
    7          6             0       -3.017342   -1.036644    1.063254
    8          1             0       -3.094298   -2.078709    0.750087
    9          1             0       -2.076314   -0.917985    1.617360
   10          1             0       -3.829342   -0.796196    1.748535
   11          6             0       -2.556325   -0.507719   -1.364141
   12          1             0       -2.228953    0.262683   -2.060972
   13          1             0       -2.024050   -1.453253   -1.441287
   14          1             0       -3.764944   -0.806149   -1.864197
   15          8             0       -5.241244   -0.481492   -0.659395
   16          8             0       -5.039112   -0.902964   -1.849351
 ---------------------------------------------------------------------

 SCF Done:  E(UB+HF-LYP) =  -383.451900411     A.U. after   21 cycles

 Alpha  occ. eigenvalues --  -19.21373 -19.20094 -19.12084 -10.23392 -10.23132
 Alpha  occ. eigenvalues --  -10.17981 -10.17427  -1.20104  -1.03200  -0.83236
 Alpha  occ. eigenvalues --   -0.81039  -0.71590  -0.69851  -0.56566  -0.53703
 Alpha  occ. eigenvalues --   -0.51823  -0.49148  -0.48550  -0.47576  -0.45164
 Alpha  occ. eigenvalues --   -0.44155  -0.41967  -0.39412  -0.38488  -0.34339
 Alpha  occ. eigenvalues --   -0.32270  -0.28850  -0.27616  -0.25830
 Alpha virt. eigenvalues --   -0.05185   0.03887   0.06008   0.07312   0.07927
 Alpha virt. eigenvalues --    0.09766   0.10568   0.12480   0.14027   0.14725
 Alpha virt. eigenvalues --    0.18399   0.19205   0.21241   0.23728   0.25122

  Beta  occ. eigenvalues --  -19.19933 -19.18378 -19.12078 -10.23387 -10.23212
  Beta  occ. eigenvalues --  -10.17975 -10.17412  -1.16995  -1.03188  -0.83331
  Beta  occ. eigenvalues --   -0.76811  -0.71464  -0.69787  -0.56568  -0.52740
  Beta  occ. eigenvalues --   -0.51539  -0.48374  -0.46243  -0.45044  -0.43988
  Beta  occ. eigenvalues --   -0.42301  -0.40023  -0.39391  -0.38488  -0.34325
  Beta  occ. eigenvalues --   -0.31421  -0.28818  -0.24568
  Beta virt. eigenvalues --   -0.10391  -0.05028   0.03908   0.06229   0.07387
  Beta virt. eigenvalues --    0.07926   0.09797   0.10620   0.12481   0.14541
  Beta virt. eigenvalues --    0.15101   0.18503   0.19322   0.22015   0.24108

 Mulliken atomic charges:
              1
     1  C    0.073459
     2  H    0.122522
     3  H    0.104503
     4  O   -0.387856
     5  H    0.249224
     6  C   -0.195123
     7  C   -0.211952
     8  H    0.117762
     9  H    0.123058
    10  H    0.129033
    11  C   -0.306775
    12  H    0.127074
    13  H    0.130967
    14  H    0.259759
    15  O   -0.198753
    16  O   -0.136902
 Sum of Mulliken charges=   0.00000

 Dipole moment (field-independent basis, Debye):
    X=     2.4450    Y=    -0.3543    Z=    -0.3517  Tot=     2.4954
 Quadrupole moment (field-independent basis, Debye-Ang):
   XX=   -61.9880   YY=   -43.9751   ZZ=   -45.1605
   XY=    -0.0886   XZ=    -0.8594   YZ=    -3.9520

  Exact polarizability:  66.165   1.839  56.142   4.175   6.362  69.509
 Approx polarizability: 111.372   7.823  76.864  11.989  17.268 113.678

 ******    1 imaginary frequencies (negative Signs) ******

                     1                      2                      3
                     A                      A                      A
 Frequencies -- -1043.1819               118.2791               132.5040
 Red. masses --     1.2775                 6.4943                 2.2454
 Frc consts  --     0.8191                 0.0535                 0.0232
 IR Inten    --   303.5421                 2.3012                 3.0706

                     4                      5                      6
                     A                      A                      A
 Frequencies --   173.4592               178.8674               205.2801
 Red. masses --     5.6846                 1.1931                 3.9335
 Frc consts  --     0.1008                 0.0225                 0.0977
 IR Inten    --     2.7468                 0.9490                14.4764

                     7                      8                      9
                     A                      A                      A
 Frequencies --   286.0917               349.2596               405.8904
 Red. masses --     3.2985                 2.6210                 2.1673
 Frc consts  --     0.1591                 0.1884                 0.2104
 IR Inten    --     5.9640                63.7350                 1.4190

                    10                     11                     12
                     A                      A                      A
 Frequencies --   476.2157               526.6466               554.1660
 Red. masses --     1.2993                 2.7041                 3.3161
 Frc consts  --     0.1736                 0.4419                 0.6000
 IR Inten    --   100.5218                11.8466                29.4334

                    13                     14                     15
                     A                      A                      A
 Frequencies --   636.9870               663.4997               816.8913
 Red. masses --     5.3091                 1.1143                 3.6223
 Frc consts  --     1.2692                 0.2890                 1.4242
 IR Inten    --     5.6439                 1.0119                 6.9854

                    16                     17                     18
                     A                      A                      A
 Frequencies --   906.3525               988.2023              1017.6275
 Red. masses --     1.4947                 1.3869                 1.2941
 Frc consts  --     0.7234                 0.7980                 0.7896
 IR Inten    --     9.1666                 1.4918                 6.4308

                    19                     20                     21
                     A                      A                      A
 Frequencies --  1044.3776              1057.1409              1096.9681
 Red. masses --     1.4262                 1.8000                 3.8335
 Frc consts  --     0.9165                 1.1852                 2.7179
 IR Inten    --     2.0542                76.4814                57.2842

                    22                     23                     24
                     A                      A                      A
 Frequencies --  1212.5884              1287.7014              1310.3649
 Red. masses --     1.1294                 1.4322                 4.6322
 Frc consts  --     0.9784                 1.3992                 4.6862
 IR Inten    --    55.0741                30.4448               142.1949

                    25                     26                     27
                     A                      A                      A
 Frequencies --  1327.3885              1363.9296              1402.9095
 Red. masses --     1.8226                 1.2984                 1.2498
 Frc consts  --     1.8921                 1.4231                 1.4492
 IR Inten    --     7.0227                17.4520                16.3955

                    28                     29                     30
                     A                      A                      A
 Frequencies --  1413.5585              1439.9925              1470.5922
 Red. masses --     1.2517                 1.3072                 1.0644
 Frc consts  --     1.4735                 1.5971                 1.3562
 IR Inten    --    55.9644                 4.6477                12.6315

                    31                     32                     33
                     A                      A                      A
 Frequencies --  1485.1488              1488.3392              1562.4539
 Red. masses --     1.0729                 1.0677                 1.4580
 Frc consts  --     1.3943                 1.3935                 2.0972
 IR Inten    --     1.8918                10.2786                37.5758

                    34                     35                     36
                     A                      A                      A
 Frequencies --  1591.9457              2993.0736              3007.9096
 Red. masses --     1.6587                 1.0584                 1.0527
 Frc consts  --     2.4767                 5.5865                 5.6116
 IR Inten    --    36.9740                39.7490                12.2189

                    37                     38                     39
                     A                      A                      A
 Frequencies --  3029.5465              3085.0655              3090.5042
 Red. masses --     1.1027                 1.0561                 1.0801
 Frc consts  --     5.9628                 5.9222                 6.0779
 IR Inten    --    26.5377                 4.6208                10.5682

                    40                     41                     42
                     A                      A                      A
 Frequencies --  3137.7494              3165.7597              3806.0518
 Red. masses --     1.1029                 1.1125                 1.0656
 Frc consts  --     6.3975                 6.5689                 9.0947
 IR Inten    --     6.6105                10.4787                33.2651

 - Thermochemistry -
 -------------------
 Temperature   298.150 Kelvin.  Pressure   1.00000 Atm.
 Atom  1 has atomic number  6 and mass  12.00000

 Molecular mass:   105.05517 amu.
 Principal axes and moments of inertia in atomic units:
                           1         2         3
     EIGENVALUES --   597.72133 869.792491053.98017
           X            0.31188   0.89407  -0.32150
           Y            0.59324  -0.44756  -0.66915
           Z            0.74216  -0.01796   0.66998
 This molecule is an asymmetric top.
 Rotational symmetry number  1.
 Warning -- assumption of classical behavior for rotation
           may cause significant error
 Rotational temperatures (Kelvin)      0.14491     0.09958     0.08218
 Rotational constants (GHZ):           3.01937     2.07491     1.71231
    1 imaginary frequencies ignored.
 Zero-point vibrational energy     330811.0 (Joules/Mol)
                                   79.06573 (Kcal/Mol)
 Warning -- explicit consideration of  11 degrees of freedom as
           vibrations may cause significant error
 Vibrational temperatures:    170.18   190.64   249.57   257.35   295.35
          (Kelvin)            411.62   502.51   583.99   685.17   757.73
                              797.32   916.48   954.63  1175.32  1304.04
                             1421.80  1464.14  1502.62  1520.99  1578.29
                             1744.64  1852.71  1885.32  1909.81  1962.39
                             2018.47  2033.79  2071.83  2115.85  2136.80
                             2141.39  2248.02  2290.45  4306.36  4327.71
                             4358.84  4438.72  4446.54  4514.52  4554.82
                             5476.05

 Zero-point correction=                           0.125999 (Hartree/Particle)
 Thermal correction to Energy=                    0.134350
 Thermal correction to Enthalpy=                  0.135294
 Thermal correction to Gibbs Free Energy=         0.092971
 Sum of electronic and zero-point Energies=           -383.325901
 Sum of electronic and thermal Energies=              -383.317551
 Sum of electronic and thermal Enthalpies=            -383.316606
 Sum of electronic and thermal Free Energies=         -383.358929

                     E (Thermal)             CV                S
                      KCal/Mol        Cal/Mol-Kelvin    Cal/Mol-Kelvin
 Total                   84.306             29.804             89.076
 Electronic               0.000              0.000              1.377
 Translational            0.889              2.981             39.865
 Rotational               0.889              2.981             27.796
 Vibrational             82.528             23.842             20.037
 Vibration  1             0.608              1.934              3.128
 Vibration  2             0.613              1.921              2.909
 Vibration  3             0.627              1.875              2.398
 Vibration  4             0.629              1.868              2.340
 Vibration  5             0.640              1.832              2.085
 Vibration  6             0.684              1.700              1.497
 Vibration  7             0.727              1.577              1.170
 Vibration  8             0.771              1.457              0.941
 Vibration  9             0.833              1.303              0.720
 Vibration 10             0.882              1.191              0.595
 Vibration 11             0.910              1.131              0.536

 Optimization completed.
    -- Stationary point found.
 Normal termination of Gaussian 03 at Sun Jun  9 15:24:59 2013.
