 Gaussian 03, Revision D.01,
 Gaussian 03:  AM64L-G03RevD.01 13-Oct-2005

 -----------------------------------
 # freq nosymm bmk/cbsb7 iop(7/33=1)
 -----------------------------------

 -------------------
 Title Card Required
 -------------------
 Symbolic Z-matrix:
 Charge =  0 Multiplicity = 2

                          Input orientation:
 ---------------------------------------------------------------------
 Center     Atomic     Atomic              Coordinates (Angstroms)
 Number     Number      Type              X           Y           Z
 ---------------------------------------------------------------------
    1          8             0       -1.782065    2.690020   -0.333497
    2          1             0       -2.067044    2.654224    0.588144
    3          8             0       -0.371741    2.585938   -0.206800
    4          6             0       -0.053462    1.228019   -0.000224
    5          1             0       -0.432257    0.633247   -0.860971
    6          8             0       -0.618375    0.698476    1.078416
    7          6             0        1.505999    1.135955    0.023876
    8          1             0        1.832430    1.654658   -0.883957
    9          6             0        2.067028    1.860867    1.259766
   10          1             0        3.161033    1.852370    1.231667
   11          1             0        1.728961    2.899120    1.294270
   12          1             0        1.744262    1.357064    2.177091
   13          6             0        1.942183   -0.334535   -0.030696
   14          1             0        1.584898   -0.828262   -0.940313
   15          1             0        3.034529   -0.398561   -0.017556
   16          1             0        1.553219   -0.882039    0.832820
 ---------------------------------------------------------------------

 SCF Done:  E(UBMK+HF-BMK) =  -383.236833658     A.U. after   31 cycles

 Alpha  occ. eigenvalues --  -19.58671 -19.58633 -19.58063 -10.58158 -10.49384
 Alpha  occ. eigenvalues --  -10.46164 -10.45764  -1.24775  -1.15302  -0.99879
 Alpha  occ. eigenvalues --   -0.88298  -0.76678  -0.73141  -0.64098  -0.62178
 Alpha  occ. eigenvalues --   -0.57440  -0.54287  -0.52470  -0.50187  -0.48220
 Alpha  occ. eigenvalues --   -0.45923  -0.44106  -0.43979  -0.39889  -0.39724
 Alpha  occ. eigenvalues --   -0.38793  -0.37294  -0.34704  -0.33679
 Alpha virt. eigenvalues --    0.07149   0.08214   0.11617   0.11726   0.13171
 Alpha virt. eigenvalues --    0.14831   0.15453   0.16456   0.18728   0.19535
 Alpha virt. eigenvalues --    0.21433   0.22604   0.25954   0.27247   0.29107

  Beta  occ. eigenvalues --  -19.58680 -19.58051 -19.56367 -10.58232 -10.49169
  Beta  occ. eigenvalues --  -10.46174 -10.45761  -1.24474  -1.10619  -0.99225
  Beta  occ. eigenvalues --   -0.87877  -0.76615  -0.72098  -0.63031  -0.61312
  Beta  occ. eigenvalues --   -0.55559  -0.53284  -0.51460  -0.49508  -0.47695
  Beta  occ. eigenvalues --   -0.45107  -0.43969  -0.40456  -0.39621  -0.39397
  Beta  occ. eigenvalues --   -0.37666  -0.34327  -0.33618
  Beta virt. eigenvalues --   -0.12355   0.07239   0.08436   0.11695   0.11814
  Beta virt. eigenvalues --    0.13228   0.14890   0.15547   0.16607   0.18748
  Beta virt. eigenvalues --    0.19559   0.21723   0.22922   0.26422   0.27741

 Mulliken atomic charges:
              1
     1  O   -0.268259
     2  H    0.281237
     3  O   -0.251800
     4  C    0.235567
     5  H    0.177816
     6  O   -0.231796
     7  C   -0.270849
     8  H    0.171030
     9  C   -0.343008
    10  H    0.134668
    11  H    0.152608
    12  H    0.137716
    13  C   -0.339065
    14  H    0.130392
    15  H    0.138102
    16  H    0.145641
 Sum of Mulliken charges=   0.00000

 Dipole moment (field-independent basis, Debye):
    X=     1.3044    Y=    -1.0476    Z=     0.3178  Tot=     1.7029
 Quadrupole moment (field-independent basis, Debye-Ang):
   XX=   -39.5008   YY=   -48.4989   ZZ=   -43.4341
   XY=     1.0841   XZ=    -2.0358   YZ=     4.5536

  Exact polarizability:  66.693  -5.627  55.176   0.675   0.986  52.232
 Approx polarizability:  74.796  -1.942  64.140  -2.439  -2.462  66.833

                     1                      2                      3
                     A                      A                      A
 Frequencies --    79.4328               124.6972               196.9759
 Red. masses --     4.0351                 5.2147                 3.0820
 Frc consts  --     0.0150                 0.0478                 0.0705
 IR Inten    --     0.2817                 7.9965                 6.7210

                     4                      5                      6
                     A                      A                      A
 Frequencies --   238.4351               259.5464               281.8837
 Red. masses --     1.0569                 2.3850                 1.3025
 Frc consts  --     0.0354                 0.0947                 0.0610
 IR Inten    --     0.6339                11.4920                 1.7087

                     7                      8                      9
                     A                      A                      A
 Frequencies --   306.4299               342.5686               372.9736
 Red. masses --     1.5335                 2.5775                 2.8647
 Frc consts  --     0.0848                 0.1782                 0.2348
 IR Inten    --    69.7054                15.2741                42.7526

                    10                     11                     12
                     A                      A                      A
 Frequencies --   451.3635               567.9130               633.9837
 Red. masses --     3.0649                 2.9777                 6.9471
 Frc consts  --     0.3679                 0.5658                 1.6452
 IR Inten    --     7.2598                 2.4587                 4.1364

                    13                     14                     15
                     A                      A                      A
 Frequencies --   835.4425               926.4458               948.1591
 Red. masses --     2.9421                 2.2982                 1.2581
 Frc consts  --     1.2099                 1.1622                 0.6664
 IR Inten    --     2.7941                 3.0075                 3.3898

                    16                     17                     18
                     A                      A                      A
 Frequencies --   976.9745              1002.1838              1009.7567
 Red. masses --     1.5204                 3.2978                 1.8503
 Frc consts  --     0.8550                 1.9515                 1.1115
 IR Inten    --     8.5300                 7.1494                54.0619

                    19                     20                     21
                     A                      A                      A
 Frequencies --  1069.2380              1092.3146              1165.6154
 Red. masses --     9.7634                 2.0694                 2.1006
 Frc consts  --     6.5766                 1.4547                 1.6815
 IR Inten    --    35.2052                10.7694                44.7333

                    22                     23                     24
                     A                      A                      A
 Frequencies --  1189.5798              1215.8280              1289.6823
 Red. masses --     2.0429                 1.7354                 1.1829
 Frc consts  --     1.7033                 1.5115                 1.1592
 IR Inten    --    11.2050                 2.7323                 5.7124

                    25                     26                     27
                     A                      A                      A
 Frequencies --  1359.2601              1373.1125              1414.4708
 Red. masses --     1.4253                 1.4388                 1.2716
 Frc consts  --     1.5516                 1.5984                 1.4990
 IR Inten    --     2.0015                 7.4523                10.0943

                    28                     29                     30
                     A                      A                      A
 Frequencies --  1434.1569              1446.5565              1509.2580
 Red. masses --     1.2385                 1.1194                 1.0453
 Frc consts  --     1.5009                 1.3801                 1.4029
 IR Inten    --     9.3713                66.8189                 3.7626

                    31                     32                     33
                     A                      A                      A
 Frequencies --  1509.9542              1521.9073              1531.6363
 Red. masses --     1.0470                 1.0466                 1.0487
 Frc consts  --     1.4065                 1.4282                 1.4495
 IR Inten    --     1.4930                10.3644                11.6478

                    34                     35                     36
                     A                      A                      A
 Frequencies --  2889.6497              3043.2449              3045.2282
 Red. masses --     1.0699                 1.0351                 1.0355
 Frc consts  --     5.2638                 5.6479                 5.6579
 IR Inten    --    13.6802                14.4894                11.7372

                    37                     38                     39
                     A                      A                      A
 Frequencies --  3079.1686              3117.0546              3118.8021
 Red. masses --     1.0857                 1.1024                 1.1026
 Frc consts  --     6.0650                 6.3109                 6.3187
 IR Inten    --     3.4853                11.4027                12.3636

                    40                     41                     42
                     A                      A                      A
 Frequencies --  3132.1196              3135.4424              3842.5763
 Red. masses --     1.1020                 1.1023                 1.0682
 Frc consts  --     6.3697                 6.3846                 9.2926
 IR Inten    --    11.7642                 8.3559                43.5913

 - Thermochemistry -
 -------------------
 Temperature   298.150 Kelvin.  Pressure   1.00000 Atm.
 Atom  1 has atomic number  8 and mass  15.99491

 Molecular mass:   105.05517 amu.
 Principal axes and moments of inertia in atomic units:
                           1         2         3
     EIGENVALUES --   383.560591078.529351180.79469
           X            0.85891   0.47483  -0.19184
           Y           -0.49106   0.86995  -0.04533
           Z            0.14536   0.13314   0.98038
 This molecule is an asymmetric top.
 Rotational symmetry number  1.
 Rotational temperatures (Kelvin)      0.22582     0.08031     0.07335
 Rotational constants (GHZ):           4.70523     1.67334     1.52841
 Zero-point vibrational energy     347401.7 (Joules/Mol)
                                   83.03099 (Kcal/Mol)
 Warning -- explicit consideration of  11 degrees of freedom as
           vibrations may cause significant error
 Vibrational temperatures:    114.29   179.41   283.40   343.05   373.43
          (Kelvin)            405.57   440.88   492.88   536.63   649.41
                              817.10   912.16  1202.01  1332.95  1364.19
                             1405.65  1441.92  1452.81  1538.39  1571.60
                             1677.06  1711.54  1749.30  1855.56  1955.67
                             1975.60  2035.11  2063.43  2081.27  2171.48
                             2172.48  2189.68  2203.68  4157.56  4378.55
                             4381.40  4430.23  4484.74  4487.26  4506.42
                             4511.20  5528.60

 Zero-point correction=                           0.132318 (Hartree/Particle)
 Thermal correction to Energy=                    0.140748
 Thermal correction to Enthalpy=                  0.141693
 Thermal correction to Gibbs Free Energy=         0.099171
 Sum of electronic and zero-point Energies=           -383.104515
 Sum of electronic and thermal Energies=              -383.096085
 Sum of electronic and thermal Enthalpies=            -383.095141
 Sum of electronic and thermal Free Energies=         -383.137662

                     E (Thermal)             CV                S
                      KCal/Mol        Cal/Mol-Kelvin    Cal/Mol-Kelvin
 Total                   88.321             29.960             89.494
 Electronic               0.000              0.000              1.377
 Translational            0.889              2.981             39.865
 Rotational               0.889              2.981             27.682
 Vibrational             86.544             23.998             20.570
 Vibration  1             0.600              1.963              3.905
 Vibration  2             0.610              1.928              3.026
 Vibration  3             0.636              1.844              2.161
 Vibration  4             0.656              1.782              1.815
 Vibration  5             0.668              1.747              1.665
 Vibration  6             0.681              1.707              1.522
 Vibration  7             0.697              1.661              1.382
 Vibration  8             0.722              1.590              1.200
 Vibration  9             0.744              1.528              1.068
 Vibration 10             0.810              1.358              0.792
 Vibration 11             0.924              1.101              0.508

 Optimization completed.
    -- Stationary point found.
 Normal termination of Gaussian 03 at Wed Jul  9 00:05:03 2014.
