 Gaussian 03, Revision D.01,
 Gaussian 03:  AM64L-G03RevD.01 13-Oct-2005

 -------------------------------------
 # freq nosymm b3lyp/cbsb7 iop(7/33=1)
 -------------------------------------

 -------
 NBO NRT
 -------
 Symbolic Z-matrix:
 Charge =  0 Multiplicity = 2

                          Input orientation:
 ---------------------------------------------------------------------
 Center     Atomic     Atomic              Coordinates (Angstroms)
 Number     Number      Type              X           Y           Z
 ---------------------------------------------------------------------
    1          8             0       -0.175650   -0.128910    0.172210
    2          8             0        2.200710    0.284700    1.985550
    3          8             0        1.833400    0.919030    0.440010
    4          6             0        2.498990    0.788900   -2.428860
    5          6             0        0.161470   -0.079290   -2.728670
    6          6             0        1.165400    0.777800   -1.971990
    7          6             0        1.137980    0.026350   -0.205340
    8          1             0       -0.421280    0.674880    0.650430
    9          1             0       -0.105620    0.412590   -3.668540
   10          1             0        2.895050   -0.039900   -3.006230
   11          1             0        3.196810    1.552080   -2.108980
   12          1             0        3.116410    0.595830    1.955110
   13          1             0        0.583430   -1.058490   -2.972400
   14          1             0       -0.748800   -0.230250   -2.149460
   15          1             0        0.775640    1.752560   -1.681250
   16          1             0        1.574960   -0.955030   -0.388170
 ---------------------------------------------------------------------

 SCF Done:  E(UB+HF-LYP) =  -383.438989531     A.U. after   23 cycles

 Alpha  occ. eigenvalues --  -19.16366 -19.14652 -19.13392 -10.29165 -10.20315
 Alpha  occ. eigenvalues --  -10.18742 -10.17108  -1.09927  -1.02865  -0.94227
 Alpha  occ. eigenvalues --   -0.80620  -0.69717  -0.65572  -0.58584  -0.52097
 Alpha  occ. eigenvalues --   -0.50328  -0.48561  -0.47104  -0.44190  -0.42903
 Alpha  occ. eigenvalues --   -0.40685  -0.38966  -0.37841  -0.36449  -0.35517
 Alpha  occ. eigenvalues --   -0.31740  -0.29710  -0.27425  -0.20281
 Alpha virt. eigenvalues --   -0.08670   0.04130   0.05229   0.06446   0.07711
 Alpha virt. eigenvalues --    0.08754   0.09152   0.10777   0.11910   0.13284
 Alpha virt. eigenvalues --    0.14114   0.20953   0.22296   0.25071   0.27547

  Beta  occ. eigenvalues --  -19.16507 -19.14540 -19.12316 -10.28757 -10.20621
  Beta  occ. eigenvalues --  -10.17722 -10.17094  -1.09643  -1.02361  -0.92233
  Beta  occ. eigenvalues --   -0.80120  -0.68564  -0.65179  -0.57954  -0.51523
  Beta  occ. eigenvalues --   -0.49948  -0.48123  -0.46682  -0.43777  -0.42506
  Beta  occ. eigenvalues --   -0.40179  -0.38584  -0.37547  -0.36263  -0.34597
  Beta  occ. eigenvalues --   -0.31335  -0.27307  -0.26599
  Beta virt. eigenvalues --   -0.09571  -0.05007   0.04187   0.05386   0.06742
  Beta virt. eigenvalues --    0.07869   0.09082   0.09907   0.10995   0.11991
  Beta virt. eigenvalues --    0.13398   0.14205   0.21013   0.22599   0.25527

 Mulliken atomic charges:
              1
     1  O   -0.334769
     2  O   -0.333436
     3  O   -0.281107
     4  C   -0.147466
     5  C   -0.260906
     6  C   -0.268409
     7  C    0.283347
     8  H    0.245798
     9  H    0.123103
    10  H    0.112170
    11  H    0.121948
    12  H    0.248978
    13  H    0.106615
    14  H    0.127838
    15  H    0.137994
    16  H    0.118302
 Sum of Mulliken charges=   0.00000

 Dipole moment (field-independent basis, Debye):
    X=     0.5680    Y=     0.6760    Z=    -1.9574  Tot=     2.1473
 Quadrupole moment (field-independent basis, Debye-Ang):
   XX=   -37.0800   YY=   -42.5165   ZZ=   -43.3499
   XY=    -1.2855   XZ=    -1.9290   YZ=     1.3665

  Exact polarizability:  68.827   4.504  50.431   6.269  -1.940 121.796
 Approx polarizability:  98.632   6.659  75.388   6.067  -8.303 208.350

 ******    1 imaginary frequencies (negative Signs) ******

                     1                      2                      3
                     A                      A                      A
 Frequencies --  -913.2321                58.7347                94.7726
 Red. masses --    10.3069                 3.4634                 5.0675
 Frc consts  --     5.0645                 0.0070                 0.0268
 IR Inten    --   512.5681                 0.3806                 2.1158

                     4                      5                      6
                     A                      A                      A
 Frequencies --   153.8915               170.5835               201.9801
 Red. masses --     1.8772                 1.1813                 1.5337
 Frc consts  --     0.0262                 0.0203                 0.0369
 IR Inten    --    22.1316                79.0679                 1.0593

                     7                      8                      9
                     A                      A                      A
 Frequencies --   245.2615               275.8897               306.2737
 Red. masses --     4.6206                 4.8383                 2.7827
 Frc consts  --     0.1638                 0.2170                 0.1538
 IR Inten    --     4.6777                32.2147                 2.8832

                    10                     11                     12
                     A                      A                      A
 Frequencies --   381.4605               389.8196               426.5409
 Red. masses --     1.8469                 1.7505                 1.5983
 Frc consts  --     0.1583                 0.1567                 0.1713
 IR Inten    --    21.2368                 7.1315                69.4878

                    13                     14                     15
                     A                      A                      A
 Frequencies --   454.8159               523.9918               608.7086
 Red. masses --     1.5364                 2.9387                 3.5140
 Frc consts  --     0.1873                 0.4754                 0.7671
 IR Inten    --    48.5041                63.6157                51.7106

                    16                     17                     18
                     A                      A                      A
 Frequencies --   761.2354               879.0989               938.8331
 Red. masses --     1.4355                 2.2847                 1.2092
 Frc consts  --     0.4901                 1.0403                 0.6280
 IR Inten    --    60.1446                14.1886                18.8318

                    19                     20                     21
                     A                      A                      A
 Frequencies --   967.8179              1030.5860              1046.5129
 Red. masses --     1.8187                 1.2403                 1.1239
 Frc consts  --     1.0037                 0.7762                 0.7252
 IR Inten    --    68.1242                 3.4071                66.1707

                    22                     23                     24
                     A                      A                      A
 Frequencies --  1097.3815              1142.8040              1183.9429
 Red. masses --     1.7671                 1.7170                 1.5711
 Frc consts  --     1.2538                 1.3212                 1.2976
 IR Inten    --    83.2570                52.6537                 1.5609

                    25                     26                     27
                     A                      A                      A
 Frequencies --  1227.8899              1258.5561              1304.6620
 Red. masses --     1.6410                 3.0037                 1.4191
 Frc consts  --     1.4578                 2.8032                 1.4232
 IR Inten    --    15.9708                76.7058                26.7926

                    28                     29                     30
                     A                      A                      A
 Frequencies --  1390.9331              1411.7361              1435.0294
 Red. masses --     1.4158                 1.2963                 1.3543
 Frc consts  --     1.6139                 1.5221                 1.6432
 IR Inten    --     1.9630                16.8945               115.5520

                    31                     32                     33
                     A                      A                      A
 Frequencies --  1484.9944              1502.1632              1509.5802
 Red. masses --     1.0879                 1.1369                 1.2207
 Frc consts  --     1.4135                 1.5115                 1.6390
 IR Inten    --     6.7342                 8.5520                 1.5600

                    34                     35                     36
                     A                      A                      A
 Frequencies --  3030.3154              3082.6779              3101.7253
 Red. masses --     1.0379                 1.0990                 1.0882
 Frc consts  --     5.6157                 6.1532                 6.1684
 IR Inten    --    26.3392                 8.3129                 2.5934

                    37                     38                     39
                     A                      A                      A
 Frequencies --  3104.5555              3128.6226              3133.8271
 Red. masses --     1.0887                 1.0979                 1.0539
 Frc consts  --     6.1823                 6.3317                 6.0983
 IR Inten    --    36.3855                 7.5958                 9.9617

                    40                     41                     42
                     A                      A                      A
 Frequencies --  3233.9916              3780.6190              3791.5754
 Red. masses --     1.1163                 1.0646                 1.0681
 Frc consts  --     6.8786                 8.9651                 9.0469
 IR Inten    --     8.7944                59.1642                69.4222

 - Thermochemistry -
 -------------------
 Temperature   298.150 Kelvin.  Pressure   1.00000 Atm.
 Atom  1 has atomic number  8 and mass  15.99491

 Molecular mass:   105.05517 amu.
 Principal axes and moments of inertia in atomic units:
                           1         2         3
     EIGENVALUES --   436.532741103.834381441.74120
           X            0.19647   0.92198  -0.33368
           Y            0.00727   0.33894   0.94078
           Z            0.98048  -0.18726   0.05988
 This molecule is an asymmetric top.
 Rotational symmetry number  1.
 Warning -- assumption of classical behavior for rotation
           may cause significant error
 Rotational temperatures (Kelvin)      0.19841     0.07847     0.06008
 Rotational constants (GHZ):           4.13426     1.63497     1.25178
    1 imaginary frequencies ignored.
 Zero-point vibrational energy     330494.7 (Joules/Mol)
                                   78.99012 (Kcal/Mol)
 Warning -- explicit consideration of  14 degrees of freedom as
           vibrations may cause significant error
 Vibrational temperatures:     84.51   136.36   221.42   245.43   290.60
          (Kelvin)            352.88   396.94   440.66   548.84   560.86
                              613.70   654.38   753.91   875.79  1095.25
                             1264.83  1350.77  1392.47  1482.78  1505.70
                             1578.89  1644.24  1703.43  1766.66  1810.78
                             1877.12  2001.24  2031.17  2064.68  2136.57
                             2161.28  2171.95  4359.94  4435.28  4462.69
                             4466.76  4501.38  4508.87  4652.99  5439.46
                             5455.22

 Zero-point correction=                           0.125879 (Hartree/Particle)
 Thermal correction to Energy=                    0.135425
 Thermal correction to Enthalpy=                  0.136370
 Thermal correction to Gibbs Free Energy=         0.091209
 Sum of electronic and zero-point Energies=           -383.313111
 Sum of electronic and thermal Energies=              -383.303564
 Sum of electronic and thermal Enthalpies=            -383.302620
 Sum of electronic and thermal Free Energies=         -383.347781

                     E (Thermal)             CV                S
                      KCal/Mol        Cal/Mol-Kelvin    Cal/Mol-Kelvin
 Total                   84.981             33.188             95.049
 Electronic               0.000              0.000              1.377
 Translational            0.889              2.981             39.865
 Rotational               0.889              2.981             28.032
 Vibrational             83.203             27.226             25.775
 Vibration  1             0.596              1.974              4.499
 Vibration  2             0.603              1.953              3.559
 Vibration  3             0.619              1.898              2.624
 Vibration  4             0.626              1.879              2.429
 Vibration  5             0.639              1.837              2.115
 Vibration  6             0.660              1.771              1.764
 Vibration  7             0.678              1.718              1.559
 Vibration  8             0.697              1.662              1.382
 Vibration  9             0.751              1.510              1.033
 Vibration 10             0.758              1.492              1.001
 Vibration 11             0.788              1.412              0.870
 Vibration 12             0.813              1.350              0.781
 Vibration 13             0.879              1.197              0.601
 Vibration 14             0.968              1.013              0.435

 Optimization completed.
    -- Stationary point found.
 Normal termination of Gaussian 03 at Wed Jun 26 11:40:36 2019.
