 Gaussian 03, Revision D.01,
 Gaussian 03:  AM64L-G03RevD.01 13-Oct-2005

 -------------------------------------
 # freq nosymm b3lyp/cbsb7 iop(7/33=1)
 -------------------------------------

 -------------------
 Title Card Required
 -------------------
 Symbolic Z-matrix:
 Charge =  0 Multiplicity = 3

                          Input orientation:
 ---------------------------------------------------------------------
 Center     Atomic     Atomic              Coordinates (Angstroms)
 Number     Number      Type              X           Y           Z
 ---------------------------------------------------------------------
    1          8             0       -0.171571    0.065359    0.000000
    2          8             0        1.034054    0.065359    0.000000
 ---------------------------------------------------------------------

 SCF Done:  E(UB+HF-LYP) =  -150.364790867     A.U. after   10 cycles

 Alpha  occ. eigenvalues --  -19.28007 -19.27990  -1.31478  -0.83923  -0.56869
 Alpha  occ. eigenvalues --   -0.56869  -0.55314  -0.31185  -0.31185
 Alpha virt. eigenvalues --    0.19759   0.66242   0.66242   0.69943   0.71134
 Alpha virt. eigenvalues --    0.77365   0.78063   0.78063   1.23349   2.23113
 Alpha virt. eigenvalues --    2.23113   2.53461   2.53461   2.80199   2.80199

  Beta  occ. eigenvalues --  -19.24952 -19.24921  -1.25746  -0.75079  -0.51329
  Beta  occ. eigenvalues --   -0.46538  -0.46538
  Beta virt. eigenvalues --   -0.11701  -0.11701   0.24126   0.70894   0.70894
  Beta virt. eigenvalues --    0.71941   0.72384   0.79951   0.83109   0.83109
  Beta virt. eigenvalues --    1.27049   2.27704   2.27704   2.62135   2.62136

 Mulliken atomic charges:
              1
     1  O    0.000000
     2  O    0.000000
 Sum of Mulliken charges=   0.00000

 Dipole moment (field-independent basis, Debye):
    X=     0.0000    Y=     0.0000    Z=     0.0000  Tot=     0.0000
 Quadrupole moment (field-independent basis, Debye-Ang):
   XX=   -10.5689   YY=    -9.8561   ZZ=    -9.8561
   XY=     0.0000   XZ=     0.0000   YZ=     0.0000

  Exact polarizability:  12.688   0.000   3.490   0.000   0.000   3.490
 Approx polarizability:  23.778   0.000   4.085   0.000   0.000   4.085

                     1
                    SGG
 Frequencies --  1641.2276
 Red. masses --    15.9949
 Frc consts  --    25.3846
 IR Inten    --     0.0000

 - Thermochemistry -
 -------------------
 Temperature   298.150 Kelvin.  Pressure   1.00000 Atm.
 Atom  1 has atomic number  8 and mass  15.99491

 Molecular mass:    31.98983 amu.
 Principal axes and moments of inertia in atomic units:
                           1         2         3
     EIGENVALUES --     0.00000  41.51205  41.51205
           X            1.00000   0.00000   0.00000
           Y            0.00000   1.00000   0.00000
           Z            0.00000   0.00000   1.00000
 This molecule is a prolate symmetric top.
 Rotational symmetry number  2.
 Rotational temperature (Kelvin)      2.08647
 Rotational constant (GHZ):          43.475119
 Zero-point vibrational energy       9816.7 (Joules/Mol)
                                    2.34625 (Kcal/Mol)
 Vibrational temperatures:   2361.36
          (Kelvin)

 Zero-point correction=                           0.003739 (Hartree/Particle)
 Thermal correction to Energy=                    0.006102
 Thermal correction to Enthalpy=                  0.007046
 Thermal correction to Gibbs Free Energy=        -0.016226
 Sum of electronic and zero-point Energies=           -150.361052
 Sum of electronic and thermal Energies=              -150.358689
 Sum of electronic and thermal Enthalpies=            -150.357745
 Sum of electronic and thermal Free Energies=         -150.381017

                     E (Thermal)             CV                S
                      KCal/Mol        Cal/Mol-Kelvin    Cal/Mol-Kelvin
 Total                    3.829              5.013             48.981
 Electronic               0.000              0.000              2.183
 Translational            0.889              2.981             36.321
 Rotational               0.592              1.987             10.471
 Vibrational              2.348              0.045              0.006

 Optimization completed.
    -- Stationary point found.
 Normal termination of Gaussian 03 at Sat May 16 14:10:29 2015.
