 Gaussian 03, Revision D.01,
 Gaussian 03:  AM64L-G03RevD.01 13-Oct-2005

 -------------------------------------
 # freq nosymm b3lyp/cbsb7 iop(7/33=1)
 -------------------------------------

 -------------------
 Title Card Required
 -------------------
 Symbolic Z-matrix:
 Charge =  0 Multiplicity = 2

                          Input orientation:
 ---------------------------------------------------------------------
 Center     Atomic     Atomic              Coordinates (Angstroms)
 Number     Number      Type              X           Y           Z
 ---------------------------------------------------------------------
    1          6             0       -2.307655    1.149488    0.378058
    2          1             0       -2.918278    2.000233    0.690237
    3          1             0       -2.899298    0.228172    0.363790
    4          6             0       -1.027621    0.947195    1.210585
    5          1             0       -0.461430    0.521904    0.069445
    6          6             0       -1.019307   -0.171726    2.219039
    7          1             0       -1.324146   -1.118910    1.767494
    8          1             0       -0.027858   -0.302652    2.661185
    9          1             0       -1.715602    0.039438    3.042695
   10          6             0       -0.319752    2.212078    1.648715
   11          1             0       -0.704048    2.512221    2.634782
   12          1             0        0.750292    1.990235    1.790441
   13          8             0       -0.507894    3.327367    0.799025
   14          1             0       -0.502773    3.022040   -0.116146
   15          8             0       -1.833857    1.458412   -0.938802
   16          8             0       -0.786229    0.513039   -1.136719
 ---------------------------------------------------------------------

 SCF Done:  E(UB+HF-LYP) =  -383.430288656     A.U. after   22 cycles

 Alpha  occ. eigenvalues --  -19.19105 -19.18165 -19.11771 -10.24185 -10.23456
 Alpha  occ. eigenvalues --  -10.22048 -10.19197  -1.14036  -1.02904  -0.88858
 Alpha  occ. eigenvalues --   -0.82908  -0.70685  -0.69668  -0.59745  -0.54109
 Alpha  occ. eigenvalues --   -0.52313  -0.50269  -0.46482  -0.45739  -0.44398
 Alpha  occ. eigenvalues --   -0.43259  -0.41930  -0.39840  -0.37458  -0.35610
 Alpha  occ. eigenvalues --   -0.33729  -0.28853  -0.26496  -0.25002
 Alpha virt. eigenvalues --    0.01681   0.03630   0.05776   0.06843   0.07306
 Alpha virt. eigenvalues --    0.09460   0.09874   0.10885   0.12476   0.13931
 Alpha virt. eigenvalues --    0.15859   0.16753   0.19351   0.22244   0.23833

  Beta  occ. eigenvalues --  -19.18970 -19.16845 -19.11766 -10.24184 -10.23478
  Beta  occ. eigenvalues --  -10.21229 -10.19227  -1.12794  -1.02858  -0.86794
  Beta  occ. eigenvalues --   -0.81669  -0.70359  -0.69302  -0.58562  -0.52183
  Beta  occ. eigenvalues --   -0.51788  -0.49856  -0.45957  -0.45057  -0.43809
  Beta  occ. eigenvalues --   -0.42647  -0.41503  -0.38338  -0.35991  -0.34970
  Beta  occ. eigenvalues --   -0.33007  -0.28429  -0.24925
  Beta virt. eigenvalues --   -0.13789   0.02100   0.04182   0.05938   0.06970
  Beta virt. eigenvalues --    0.07461   0.09577   0.10026   0.10975   0.12638
  Beta virt. eigenvalues --    0.14685   0.16587   0.17457   0.20007   0.22707

 Mulliken atomic charges:
              1
     1  C    0.065187
     2  H    0.136824
     3  H    0.119436
     4  C   -0.363879
     5  H    0.221671
     6  C   -0.263394
     7  H    0.125157
     8  H    0.122067
     9  H    0.123852
    10  C    0.094323
    11  H    0.112671
    12  H    0.111036
    13  O   -0.402341
    14  H    0.250341
    15  O   -0.228782
    16  O   -0.224168
 Sum of Mulliken charges=   0.00000

 Dipole moment (field-independent basis, Debye):
    X=    -0.4440    Y=    -1.6642    Z=     3.0717  Tot=     3.5217
 Quadrupole moment (field-independent basis, Debye-Ang):
   XX=   -39.8653   YY=   -51.9632   ZZ=   -42.0984
   XY=     0.7378   XZ=    -4.0492   YZ=    -0.0541

  Exact polarizability:  55.488   0.578  58.450   4.378  -0.225  76.414
 Approx polarizability:  80.670  -5.772  82.228   0.828   3.234 115.371

 ******    1 imaginary frequencies (negative Signs) ******

                     1                      2                      3
                     A                      A                      A
 Frequencies -- -2046.9646               110.8807               129.4633
 Red. masses --     1.1075                 3.9073                 2.9493
 Frc consts  --     2.7341                 0.0283                 0.0291
 IR Inten    --   855.1776                 8.0771                 7.8937

                     4                      5                      6
                     A                      A                      A
 Frequencies --   194.6324               220.4938               260.4420
 Red. masses --     1.1276                 2.8457                 3.4164
 Frc consts  --     0.0252                 0.0815                 0.1365
 IR Inten    --     0.2441                 6.9525                 7.3144

                     7                      8                      9
                     A                      A                      A
 Frequencies --   314.8197               333.0021               370.8665
 Red. masses --     1.9157                 1.9653                 1.7362
 Frc consts  --     0.1119                 0.1284                 0.1407
 IR Inten    --    67.0757                18.6570                37.0372

                    10                     11                     12
                     A                      A                      A
 Frequencies --   487.0198               545.1684               660.1287
 Red. masses --     2.9268                 4.0726                 5.7320
 Frc consts  --     0.4090                 0.7132                 1.4717
 IR Inten    --     1.2766                 3.7581                 1.4943

                    13                     14                     15
                     A                      A                      A
 Frequencies --   825.7724               882.8473               906.0543
 Red. masses --     3.2086                 4.8029                 1.5815
 Frc consts  --     1.2891                 2.2056                 0.7649
 IR Inten    --     4.2595                21.2477                15.6276

                    16                     17                     18
                     A                      A                      A
 Frequencies --   949.6482               955.7573               995.4195
 Red. masses --     1.8678                 4.1058                 1.4936
 Frc consts  --     0.9924                 2.2098                 0.8720
 IR Inten    --     6.4762                 7.0732                 0.1304

                    19                     20                     21
                     A                      A                      A
 Frequencies --  1081.2433              1100.2059              1126.9078
 Red. masses --     2.8786                 2.3098                 1.4349
 Frc consts  --     1.9828                 1.6473                 1.0736
 IR Inten    --    82.4721                19.6277                 4.9207

                    22                     23                     24
                     A                      A                      A
 Frequencies --  1192.6328              1225.9581              1243.4777
 Red. masses --     2.2478                 1.4748                 1.1587
 Frc consts  --     1.8837                 1.3060                 1.0556
 IR Inten    --    14.9240                 3.2066                15.5606

                    25                     26                     27
                     A                      A                      A
 Frequencies --  1285.5598              1331.5349              1372.9733
 Red. masses --     1.8418                 1.2211                 1.3813
 Frc consts  --     1.7934                 1.2756                 1.5342
 IR Inten    --     6.1874                 1.1575                10.6039

                    28                     29                     30
                     A                      A                      A
 Frequencies --  1409.3332              1435.4039              1477.6425
 Red. masses --     1.2614                 1.2471                 1.0741
 Frc consts  --     1.4761                 1.5139                 1.3817
 IR Inten    --     2.0168                51.8727                 1.8326

                    31                     32                     33
                     A                      A                      A
 Frequencies --  1484.3765              1485.5623              1492.9466
 Red. masses --     1.0753                 1.0604                 1.0649
 Frc consts  --     1.3959                 1.3788                 1.3985
 IR Inten    --     2.0521                 6.6400                14.9957

                    34                     35                     36
                     A                      A                      A
 Frequencies --  1716.6375              2953.2182              2986.3994
 Red. masses --     1.0386                 1.0656                 1.0880
 Frc consts  --     1.8032                 5.4756                 5.7172
 IR Inten    --    16.6004                47.6097                13.7017

                    37                     38                     39
                     A                      A                      A
 Frequencies --  2994.1019              3027.3656              3062.4726
 Red. masses --     1.0532                 1.0591                 1.0833
 Frc consts  --     5.5629                 5.7188                 5.9861
 IR Inten    --    26.2322                39.9036                17.3317

                    40                     41                     42
                     A                      A                      A
 Frequencies --  3097.0732              3099.3002              3794.3724
 Red. masses --     1.1048                 1.1036                 1.0663
 Frc consts  --     6.2435                 6.2455                 9.0451
 IR Inten    --     6.8555                22.4164                37.9541

 - Thermochemistry -
 -------------------
 Temperature   298.150 Kelvin.  Pressure   1.00000 Atm.
 Atom  1 has atomic number  6 and mass  12.00000

 Molecular mass:   105.05517 amu.
 Principal axes and moments of inertia in atomic units:
                           1         2         3
     EIGENVALUES --   624.86435 722.306091069.19892
           X            0.29348   0.19436   0.93600
           Y            0.19453   0.94649  -0.25753
           Z            0.93596  -0.25766  -0.23997
 This molecule is an asymmetric top.
 Rotational symmetry number  1.
 Warning -- assumption of classical behavior for rotation
           may cause significant error
 Rotational temperatures (Kelvin)      0.13861     0.11991     0.08101
 Rotational constants (GHZ):           2.88821     2.49858     1.68794
    1 imaginary frequencies ignored.
 Zero-point vibrational energy     332676.2 (Joules/Mol)
                                   79.51152 (Kcal/Mol)
 Warning -- explicit consideration of  10 degrees of freedom as
           vibrations may cause significant error
 Vibrational temperatures:    159.53   186.27   280.03   317.24   374.72
          (Kelvin)            452.95   479.12   533.59   700.71   784.37
                              949.78  1188.10  1270.22  1303.61  1366.33
                             1375.12  1432.18  1555.67  1582.95  1621.37
                             1715.93  1763.88  1789.08  1849.63  1915.78
                             1975.40  2027.71  2065.22  2126.00  2135.68
                             2137.39  2148.01  2469.86  4249.02  4296.76
                             4307.84  4355.70  4406.21  4455.99  4459.20
                             5459.25

 Zero-point correction=                           0.126710 (Hartree/Particle)
 Thermal correction to Energy=                    0.134679
 Thermal correction to Enthalpy=                  0.135623
 Thermal correction to Gibbs Free Energy=         0.094081
 Sum of electronic and zero-point Energies=           -383.303579
 Sum of electronic and thermal Energies=              -383.295610
 Sum of electronic and thermal Enthalpies=            -383.294666
 Sum of electronic and thermal Free Energies=         -383.336208

                     E (Thermal)             CV                S
                      KCal/Mol        Cal/Mol-Kelvin    Cal/Mol-Kelvin
 Total                   84.512             28.585             87.433
 Electronic               0.000              0.000              1.377
 Translational            0.889              2.981             39.865
 Rotational               0.889              2.981             27.670
 Vibrational             82.735             22.624             18.521
 Vibration  1             0.607              1.940              3.253
 Vibration  2             0.612              1.924              2.954
 Vibration  3             0.635              1.847              2.183
 Vibration  4             0.647              1.810              1.955
 Vibration  5             0.668              1.745              1.659
 Vibration  6             0.702              1.645              1.337
 Vibration  7             0.715              1.610              1.245
 Vibration  8             0.743              1.532              1.076
 Vibration  9             0.843              1.279              0.691
 Vibration 10             0.900              1.150              0.554

 Optimization completed.
    -- Stationary point found.
 Normal termination of Gaussian 03 at Tue Jun 18 11:01:41 2013.
