 Gaussian 03, Revision D.01,
 Gaussian 03:  AM64L-G03RevD.01 13-Oct-2005

 -------------------------------------
 # freq nosymm b3lyp/cbsb7 iop(7/33=1)
 -------------------------------------

 -------------------
 Title Card Required
 -------------------
 Symbolic Z-matrix:
 Charge =  0 Multiplicity = 2

                          Input orientation:
 ---------------------------------------------------------------------
 Center     Atomic     Atomic              Coordinates (Angstroms)
 Number     Number      Type              X           Y           Z
 ---------------------------------------------------------------------
    1          6             0        0.222285    1.576922    0.500280
    2          1             0       -0.064354    1.695041   -0.553466
    3          1             0        1.029051    0.843542    0.569184
    4          6             0       -0.980978    1.165976    1.377338
    5          1             0       -0.588916    1.040286    2.391935
    6          6             0       -1.596266   -0.161886    0.903799
    7          1             0       -0.843645   -0.954709    0.888298
    8          1             0       -2.404977   -0.473980    1.568034
    9          1             0       -2.014037   -0.069005   -0.101347
   10          6             0       -1.999220    2.299449    1.447445
   11          1             0       -2.546166    2.386957    2.384982
   12          8             0       -2.892033    2.434565    0.396771
   13          1             0       -2.399945    2.452534   -0.433332
   14          8             0        0.777247    2.790731    0.986379
   15          8             0       -0.178922    3.811951    0.769968
   16          1             0       -1.145036    3.331992    1.326176
 ---------------------------------------------------------------------

 SCF Done:  E(UB+HF-LYP) =  -383.448870782     A.U. after   18 cycles

 Alpha  occ. eigenvalues --  -19.18435 -19.16681 -19.15762 -10.24334 -10.23629
 Alpha  occ. eigenvalues --  -10.20165 -10.18319  -1.13061  -1.06773  -0.89058
 Alpha  occ. eigenvalues --   -0.81777  -0.70839  -0.68059  -0.60582  -0.55068
 Alpha  occ. eigenvalues --   -0.52667  -0.49469  -0.47173  -0.46391  -0.43978
 Alpha  occ. eigenvalues --   -0.41885  -0.40681  -0.38759  -0.38010  -0.36873
 Alpha  occ. eigenvalues --   -0.34849  -0.31171  -0.26613  -0.21835
 Alpha virt. eigenvalues --    0.01579   0.03693   0.04367   0.07149   0.07412
 Alpha virt. eigenvalues --    0.09825   0.10896   0.12208   0.12480   0.15715
 Alpha virt. eigenvalues --    0.16827   0.18231   0.18558   0.22350   0.23573

  Beta  occ. eigenvalues --  -19.18225 -19.15486 -19.15429 -10.23604 -10.23535
  Beta  occ. eigenvalues --  -10.20146 -10.18245  -1.11878  -1.05995  -0.87308
  Beta  occ. eigenvalues --   -0.81154  -0.69970  -0.67288  -0.60247  -0.53322
  Beta  occ. eigenvalues --   -0.52353  -0.48644  -0.46274  -0.45941  -0.43062
  Beta  occ. eigenvalues --   -0.41388  -0.39422  -0.37561  -0.37290  -0.35660
  Beta  occ. eigenvalues --   -0.34059  -0.29436  -0.25197
  Beta virt. eigenvalues --   -0.10821   0.01692   0.04014   0.04931   0.07301
  Beta virt. eigenvalues --    0.07596   0.10003   0.11059   0.12341   0.12563
  Beta virt. eigenvalues --    0.16075   0.17339   0.18663   0.19425   0.22691

 Mulliken atomic charges:
              1
     1  C    0.025201
     2  H    0.093533
     3  H    0.125981
     4  C   -0.264462
     5  H    0.134149
     6  C   -0.254907
     7  H    0.113225
     8  H    0.120903
     9  H    0.101168
    10  C   -0.030449
    11  H    0.138731
    12  O   -0.329976
    13  H    0.246748
    14  O   -0.206877
    15  O   -0.249906
    16  H    0.236938
 Sum of Mulliken charges=   0.00000

 Dipole moment (field-independent basis, Debye):
    X=    -0.7511    Y=    -3.1821    Z=    -0.3201  Tot=     3.2851
 Quadrupole moment (field-independent basis, Debye-Ang):
   XX=   -47.4148   YY=   -59.1951   ZZ=   -39.8889
   XY=    -2.2115   XZ=    -1.4275   YZ=    -3.6118

  Exact polarizability:  71.578   3.918  65.038  -3.337  -0.606  52.751
 Approx polarizability: 111.902   6.548  92.447  -2.707  -2.132  77.553

 ******    1 imaginary frequencies (negative Signs) ******

                     1                      2                      3
                     A                      A                      A
 Frequencies -- -1708.4140               103.6423               143.8010
 Red. masses --     1.1030                 3.2402                 3.3969
 Frc consts  --     1.8967                 0.0205                 0.0414
 IR Inten    --   468.8911                 2.7019                10.8572

                     4                      5                      6
                     A                      A                      A
 Frequencies --   213.0334               250.8260               308.2870
 Red. masses --     1.0562                 3.4962                 2.9754
 Frc consts  --     0.0282                 0.1296                 0.1666
 IR Inten    --     0.2739                 0.5479                 4.7058

                     7                      8                      9
                     A                      A                      A
 Frequencies --   348.5252               387.4092               443.4164
 Red. masses --     2.6057                 1.7733                 3.0515
 Frc consts  --     0.1865                 0.1568                 0.3535
 IR Inten    --    12.4267                80.9031                10.4899

                    10                     11                     12
                     A                      A                      A
 Frequencies --   535.1628               599.5524               672.9242
 Red. masses --     3.9398                 2.3837                 2.7584
 Frc consts  --     0.6648                 0.5048                 0.7359
 IR Inten    --     9.4349                 3.8322                23.9331

                    13                     14                     15
                     A                      A                      A
 Frequencies --   807.1199               898.0010               917.7094
 Red. masses --     3.0200                 2.2444                 2.6344
 Frc consts  --     1.1591                 1.0663                 1.3072
 IR Inten    --    12.8675                10.4762                20.3757

                    16                     17                     18
                     A                      A                      A
 Frequencies --   945.3149               957.4004              1031.7310
 Red. masses --     1.6301                 1.5719                 7.1535
 Frc consts  --     0.8583                 0.8489                 4.4864
 IR Inten    --    12.0116                10.1107                11.9991

                    19                     20                     21
                     A                      A                      A
 Frequencies --  1061.2487              1096.8338              1132.8239
 Red. masses --     1.7866                 2.6315                 1.8460
 Frc consts  --     1.1855                 1.8653                 1.3958
 IR Inten    --    11.9929                16.2850                51.5493

                    22                     23                     24
                     A                      A                      A
 Frequencies --  1175.1326              1242.7767              1270.5236
 Red. masses --     2.6383                 1.3502                 1.1238
 Frc consts  --     2.1466                 1.2286                 1.0688
 IR Inten    --   111.3360                 3.6113                11.9499

                    25                     26                     27
                     A                      A                      A
 Frequencies --  1291.9349              1309.3718              1363.3748
 Red. masses --     1.3011                 1.2520                 1.4053
 Frc consts  --     1.2795                 1.2647                 1.5390
 IR Inten    --    16.0269                 1.8413                 0.8685

                    28                     29                     30
                     A                      A                      A
 Frequencies --  1376.8969              1410.4983              1430.0783
 Red. masses --     1.3073                 1.2050                 1.2595
 Frc consts  --     1.4602                 1.4125                 1.5176
 IR Inten    --     1.4584                14.6624                41.0424

                    31                     32                     33
                     A                      A                      A
 Frequencies --  1475.1781              1494.9684              1502.3327
 Red. masses --     1.0900                 1.0499                 1.0463
 Frc consts  --     1.3975                 1.3825                 1.3914
 IR Inten    --     3.3210                10.3554                12.9604

                    34                     35                     36
                     A                      A                      A
 Frequencies --  1577.1629              2995.9862              3033.9035
 Red. masses --     1.0568                 1.0667                 1.0350
 Frc consts  --     1.5489                 5.6412                 5.6131
 IR Inten    --    15.9789                39.4622                23.6946

                    37                     38                     39
                     A                      A                      A
 Frequencies --  3042.0734              3092.6230              3099.9252
 Red. masses --     1.0838                 1.0977                 1.1013
 Frc consts  --     5.9092                 6.1858                 6.2355
 IR Inten    --    13.7276                 4.9453                37.4613

                    40                     41                     42
                     A                      A                      A
 Frequencies --  3105.8642              3122.4582              3790.6780
 Red. masses --     1.1019                 1.0874                 1.0657
 Frc consts  --     6.2626                 6.2466                 9.0223
 IR Inten    --    21.7992                20.2654                25.9826

 - Thermochemistry -
 -------------------
 Temperature   298.150 Kelvin.  Pressure   1.00000 Atm.
 Atom  1 has atomic number  6 and mass  12.00000

 Molecular mass:   105.05517 amu.
 Principal axes and moments of inertia in atomic units:
                           1         2         3
     EIGENVALUES --   515.84629 795.566081151.57724
           X            0.74236  -0.66939  -0.02863
           Y            0.66978   0.74033   0.05747
           Z           -0.01727  -0.06184   0.99794
 This molecule is an asymmetric top.
 Rotational symmetry number  1.
 Warning -- assumption of classical behavior for rotation
           may cause significant error
 Rotational temperatures (Kelvin)      0.16791     0.10887     0.07521
 Rotational constants (GHZ):           3.49860     2.26850     1.56719
    1 imaginary frequencies ignored.
 Zero-point vibrational energy     335304.3 (Joules/Mol)
                                   80.13966 (Kcal/Mol)
 Warning -- explicit consideration of  10 degrees of freedom as
           vibrations may cause significant error
 Vibrational temperatures:    149.12   206.90   306.51   360.88   443.56
          (Kelvin)            501.45   557.39   637.98   769.98   862.62
                              968.19  1161.26  1292.02  1320.38  1360.10
                             1377.48  1484.43  1526.90  1578.10  1629.88
                             1690.75  1788.08  1828.00  1858.80  1883.89
                             1961.59  1981.05  2029.39  2057.56  2122.45
                             2150.92  2161.52  2269.18  4310.55  4365.11
                             4376.86  4449.59  4460.10  4468.64  4492.52
                             5453.93

 Zero-point correction=                           0.127711 (Hartree/Particle)
 Thermal correction to Energy=                    0.135295
 Thermal correction to Enthalpy=                  0.136239
 Thermal correction to Gibbs Free Energy=         0.095489
 Sum of electronic and zero-point Energies=           -383.321160
 Sum of electronic and thermal Energies=              -383.313576
 Sum of electronic and thermal Enthalpies=            -383.312632
 Sum of electronic and thermal Free Energies=         -383.353382

                     E (Thermal)             CV                S
                      KCal/Mol        Cal/Mol-Kelvin    Cal/Mol-Kelvin
 Total                   84.899             27.856             85.765
 Electronic               0.000              0.000              1.377
 Translational            0.889              2.981             39.865
 Rotational               0.889              2.981             27.649
 Vibrational             83.121             21.895             16.874
 Vibration  1             0.605              1.946              3.385
 Vibration  2             0.616              1.909              2.753
 Vibration  3             0.644              1.821              2.018
 Vibration  4             0.663              1.761              1.725
 Vibration  5             0.698              1.658              1.372
 Vibration  6             0.726              1.578              1.173
 Vibration  7             0.756              1.497              1.010
 Vibration  8             0.803              1.375              0.816
 Vibration  9             0.890              1.172              0.576
 Vibration 10             0.958              1.033              0.450

 Optimization completed.
    -- Stationary point found.
 Normal termination of Gaussian 03 at Sat Jul 26 00:03:37 2014.
