 Gaussian 03, Revision D.01,
 Gaussian 03:  AM64L-G03RevD.01 13-Oct-2005

 -------------------------------------
 # freq nosymm b3lyp/cbsb7 iop(7/33=1)
 -------------------------------------

 -------
 NBO NRT
 -------
 Symbolic Z-matrix:
 Charge =  0 Multiplicity = 2

                          Input orientation:
 ---------------------------------------------------------------------
 Center     Atomic     Atomic              Coordinates (Angstroms)
 Number     Number      Type              X           Y           Z
 ---------------------------------------------------------------------
    1          6             0       -3.591160    1.274220    0.240600
    2          1             0       -3.234800    1.510500    1.252700
    3          1             0       -3.124110    1.978190   -0.454270
    4          8             0       -4.987920    1.463820    0.121430
    5          1             0       -5.411880    0.772590    0.646440
    6          6             0       -3.120660   -0.153940   -0.088940
    7          6             0       -1.601330   -0.244210   -0.149710
    8          1             0       -1.292020   -1.284860   -0.257500
    9          1             0       -1.221350    0.326610   -1.000360
   10          1             0       -1.151950    0.157890    0.762190
   11          6             0       -3.837080   -0.715140   -1.324520
   12          1             0       -4.297050   -0.008570   -2.008160
   13          1             0       -3.372370   -1.579470   -1.796380
   14          1             0       -4.793420   -1.220240   -0.491080
   15          8             0       -3.527050   -1.072650    0.971100
   16          8             0       -4.907430   -1.316580    0.710430
 ---------------------------------------------------------------------

 SCF Done:  E(UB+HF-LYP) =  -383.431549778     A.U. after   23 cycles

 Alpha  occ. eigenvalues --  -19.19152 -19.18740 -19.11624 -10.25531 -10.22627
 Alpha  occ. eigenvalues --  -10.20969 -10.18459  -1.14147  -1.02650  -0.90115
 Alpha  occ. eigenvalues --   -0.80146  -0.72183  -0.69573  -0.59190  -0.54071
 Alpha  occ. eigenvalues --   -0.51623  -0.49336  -0.47488  -0.45981  -0.42357
 Alpha  occ. eigenvalues --   -0.41804  -0.41343  -0.40016  -0.37786  -0.35204
 Alpha  occ. eigenvalues --   -0.34843  -0.28903  -0.27755  -0.25407
 Alpha virt. eigenvalues --    0.01721   0.03760   0.06486   0.07528   0.07771
 Alpha virt. eigenvalues --    0.09951   0.10139   0.11708   0.13393   0.14301
 Alpha virt. eigenvalues --    0.16463   0.18427   0.19662   0.21455   0.22194

  Beta  occ. eigenvalues --  -19.18610 -19.17887 -19.11606 -10.25542 -10.22623
  Beta  occ. eigenvalues --  -10.20061 -10.18443  -1.12854  -1.02592  -0.88397
  Beta  occ. eigenvalues --   -0.79019  -0.70848  -0.69361  -0.58475  -0.52694
  Beta  occ. eigenvalues --   -0.51058  -0.48382  -0.46897  -0.44765  -0.42114
  Beta  occ. eigenvalues --   -0.41503  -0.40666  -0.39677  -0.36447  -0.34663
  Beta  occ. eigenvalues --   -0.34151  -0.28460  -0.24699
  Beta virt. eigenvalues --   -0.14899   0.02409   0.04005   0.06650   0.07754
  Beta virt. eigenvalues --    0.07935   0.10168   0.10318   0.11817   0.13665
  Beta virt. eigenvalues --    0.15225   0.17136   0.19151   0.19836   0.21558

 Mulliken atomic charges:
              1
     1  C    0.097501
     2  H    0.110976
     3  H    0.106206
     4  O   -0.395118
     5  H    0.239609
     6  C   -0.091909
     7  C   -0.250272
     8  H    0.127651
     9  H    0.117860
    10  H    0.123402
    11  C   -0.248325
    12  H    0.149288
    13  H    0.137359
    14  H    0.213964
    15  O   -0.218386
    16  O   -0.219804
 Sum of Mulliken charges=   0.00000

 Dipole moment (field-independent basis, Debye):
    X=     2.0817    Y=     0.2711    Z=    -1.8062  Tot=     2.7693
 Quadrupole moment (field-independent basis, Debye-Ang):
   XX=   -57.6581   YY=   -47.7248   ZZ=   -42.4896
   XY=     0.9649   XZ=     6.3780   YZ=     3.7098

  Exact polarizability:  64.222   2.293  55.941  -2.635   1.308  64.890
 Approx polarizability:  93.505   6.470  77.434  -4.967  -5.861  99.292

 ******    1 imaginary frequencies (negative Signs) ******

                     1                      2                      3
                     A                      A                      A
 Frequencies -- -2205.4535               134.9600               187.5033
 Red. masses --     1.1008                 3.0572                 1.2400
 Frc consts  --     3.1548                 0.0328                 0.0257
 IR Inten    --   830.5725                 6.3880                 2.6644

                     4                      5                      6
                     A                      A                      A
 Frequencies --   199.0790               243.9552               306.1949
 Red. masses --     2.6066                 3.0569                 2.6063
 Frc consts  --     0.0609                 0.1072                 0.1440
 IR Inten    --     3.2407                 1.1142                 6.8283

                     7                      8                      9
                     A                      A                      A
 Frequencies --   357.7366               385.7454               427.7507
 Red. masses --     2.7762                 1.7453                 2.1515
 Frc consts  --     0.2093                 0.1530                 0.2319
 IR Inten    --     1.1281                21.2406                 0.5614

                    10                     11                     12
                     A                      A                      A
 Frequencies --   505.7423               565.7708               585.7179
 Red. masses --     1.1882                 3.4552                 2.4236
 Frc consts  --     0.1791                 0.6516                 0.4899
 IR Inten    --   137.9637                 2.5575                26.7845

                    13                     14                     15
                     A                      A                      A
 Frequencies --   634.1578               793.8021               828.7643
 Red. masses --     4.6056                 4.9288                 3.2006
 Frc consts  --     1.0913                 1.8298                 1.2952
 IR Inten    --    15.8749                 7.1725                 6.3375

                    16                     17                     18
                     A                      A                      A
 Frequencies --   885.4489               915.7093               966.9896
 Red. masses --     1.8525                 6.8155                 1.3320
 Frc consts  --     0.8557                 3.3671                 0.7339
 IR Inten    --     3.4785                14.6981                 1.8531

                    19                     20                     21
                     A                      A                      A
 Frequencies --  1000.8817              1016.9626              1087.9702
 Red. masses --     1.3277                 1.4931                 5.3546
 Frc consts  --     0.7836                 0.9098                 3.7343
 IR Inten    --     2.4150                 9.0585                89.9615

                    22                     23                     24
                     A                      A                      A
 Frequencies --  1121.1128              1139.7509              1212.7441
 Red. masses --     1.7886                 1.1460                 3.2235
 Frc consts  --     1.3245                 0.8771                 2.7933
 IR Inten    --    15.9829                21.0287                10.3328

                    25                     26                     27
                     A                      A                      A
 Frequencies --  1247.2931              1260.8264              1380.5981
 Red. masses --     1.8752                 1.5192                 1.2944
 Frc consts  --     1.7189                 1.4229                 1.4536
 IR Inten    --    15.4480                18.0551                 5.6680

                    28                     29                     30
                     A                      A                      A
 Frequencies --  1407.8977              1441.5920              1455.0852
 Red. masses --     1.2654                 1.1925                 1.1919
 Frc consts  --     1.4778                 1.4601                 1.4869
 IR Inten    --     7.1344                33.7974                25.9711

                    31                     32                     33
                     A                      A                      A
 Frequencies --  1483.2396              1496.1033              1500.7556
 Red. masses --     1.0624                 1.0598                 1.0655
 Frc consts  --     1.3770                 1.3976                 1.4140
 IR Inten    --     5.0230                 3.8127                 7.0048

                    34                     35                     36
                     A                      A                      A
 Frequencies --  1696.0149              2992.7954              3037.7724
 Red. masses --     1.0376                 1.0670                 1.0356
 Frc consts  --     1.7584                 5.6310                 5.6303
 IR Inten    --    38.1442                45.9172                10.7779

                    37                     38                     39
                     A                      A                      A
 Frequencies --  3067.2397              3099.6488              3103.9718
 Red. masses --     1.0964                 1.0564                 1.0994
 Frc consts  --     6.0771                 5.9799                 6.2410
 IR Inten    --    21.8277                 4.8876                16.5052

                    40                     41                     42
                     A                      A                      A
 Frequencies --  3120.3993              3201.3861              3769.6735
 Red. masses --     1.1024                 1.1122                 1.0658
 Frc consts  --     6.3242                 6.7161                 8.9238
 IR Inten    --    14.4668                 4.9571                46.6903

 - Thermochemistry -
 -------------------
 Temperature   298.150 Kelvin.  Pressure   1.00000 Atm.
 Atom  1 has atomic number  6 and mass  12.00000

 Molecular mass:   105.05517 amu.
 Principal axes and moments of inertia in atomic units:
                           1         2         3
     EIGENVALUES --   590.23632 684.73890 908.02497
           X            0.87822   0.42549   0.21837
           Y           -0.45981   0.87678   0.14085
           Z           -0.13153  -0.22410   0.96565
 This molecule is an asymmetric top.
 Rotational symmetry number  1.
 Warning -- assumption of classical behavior for rotation
           may cause significant error
 Rotational temperatures (Kelvin)      0.14674     0.12649     0.09539
 Rotational constants (GHZ):           3.05766     2.63566     1.98755
    1 imaginary frequencies ignored.
 Zero-point vibrational energy     330568.5 (Joules/Mol)
                                   79.00778 (Kcal/Mol)
 Warning -- explicit consideration of  11 degrees of freedom as
           vibrations may cause significant error
 Vibrational temperatures:    194.18   269.78   286.43   351.00   440.55
          (Kelvin)            514.70   555.00   615.44   727.65   814.02
                              842.72   912.41  1142.10  1192.41  1273.96
                             1317.50  1391.28  1440.04  1463.18  1565.34
                             1613.03  1639.85  1744.87  1794.57  1814.05
                             1986.37  2025.65  2074.13  2093.54  2134.05
                             2152.56  2159.25  2440.18  4305.96  4370.67
                             4413.07  4459.70  4465.92  4489.55  4606.07
                             5423.71

 Zero-point correction=                           0.125907 (Hartree/Particle)
 Thermal correction to Energy=                    0.133659
 Thermal correction to Enthalpy=                  0.134603
 Thermal correction to Gibbs Free Energy=         0.093999
 Sum of electronic and zero-point Energies=           -383.305643
 Sum of electronic and thermal Energies=              -383.297891
 Sum of electronic and thermal Enthalpies=            -383.296947
 Sum of electronic and thermal Free Energies=         -383.337551

                     E (Thermal)             CV                S
                      KCal/Mol        Cal/Mol-Kelvin    Cal/Mol-Kelvin
 Total                   83.872             29.268             85.458
 Electronic               0.000              0.000              1.377
 Translational            0.889              2.981             39.865
 Rotational               0.889              2.981             27.398
 Vibrational             82.095             23.306             16.818
 Vibration  1             0.613              1.918              2.874
 Vibration  2             0.632              1.857              2.252
 Vibration  3             0.637              1.841              2.142
 Vibration  4             0.659              1.773              1.774
 Vibration  5             0.697              1.662              1.383
 Vibration  6             0.733              1.559              1.132
 Vibration  7             0.754              1.501              1.017
 Vibration  8             0.789              1.410              0.866
 Vibration  9             0.861              1.237              0.644
 Vibration 10             0.922              1.105              0.512
 Vibration 11             0.943              1.062              0.475

 Normal termination of Gaussian 03 at Tue Jul 30 00:14:58 2019.
