 Gaussian 03, Revision D.01,
 Gaussian 03:  AM64L-G03RevD.01 13-Oct-2005

 -------------------------------------
 # freq nosymm b3lyp/cbsb7 iop(7/33=1)
 -------------------------------------

 -------------------
 Title Card Required
 -------------------
 Symbolic Z-matrix:
 Charge =  0 Multiplicity = 2

                          Input orientation:
 ---------------------------------------------------------------------
 Center     Atomic     Atomic              Coordinates (Angstroms)
 Number     Number      Type              X           Y           Z
 ---------------------------------------------------------------------
    1          6             0        0.408529    1.242425    1.135921
    2          1             0        1.121689    0.765529    1.794471
    3          1             0        0.807089    1.773316    0.279698
    4          6             0       -1.017558    1.475886    1.559836
    5          1             0       -1.164672    1.107186    2.577707
    6          6             0       -1.719595    0.478266    0.637604
    7          1             0       -2.136111    0.937243   -0.270092
    8          6             0       -1.513199    2.918524    1.439886
    9          1             0       -2.578558    2.976162    1.678179
   10          1             0       -0.974773    3.575028    2.128021
   11          8             0       -0.575379   -0.306523    0.241567
   12          8             0       -1.327667   -1.445250   -0.744150
   13          1             0       -0.793276   -2.184976   -0.425870
   14          1             0       -1.369683    3.300957    0.425126
   15          8             0       -2.673667   -0.269491    1.312307
   16          1             0       -2.922136   -0.975018    0.698977
 ---------------------------------------------------------------------

 SCF Done:  E(UB+HF-LYP) =  -383.445921756     A.U. after   22 cycles

 Alpha  occ. eigenvalues --  -19.16650 -19.13981 -19.11773 -10.26923 -10.21229
 Alpha  occ. eigenvalues --  -10.19275 -10.17329  -1.07160  -1.01212  -0.93327
 Alpha  occ. eigenvalues --   -0.80800  -0.69915  -0.66474  -0.57533  -0.53407
 Alpha  occ. eigenvalues --   -0.49967  -0.48255  -0.45817  -0.43649  -0.42373
 Alpha  occ. eigenvalues --   -0.41315  -0.37815  -0.37357  -0.36098  -0.35143
 Alpha  occ. eigenvalues --   -0.31990  -0.28932  -0.27329  -0.21101
 Alpha virt. eigenvalues --   -0.05306   0.04369   0.05501   0.06544   0.07173
 Alpha virt. eigenvalues --    0.09372   0.11289   0.11502   0.12607   0.13110
 Alpha virt. eigenvalues --    0.17225   0.19292   0.21076   0.24578   0.28991

  Beta  occ. eigenvalues --  -19.16678 -19.12924 -19.11774 -10.26824 -10.20140
  Beta  occ. eigenvalues --  -10.19336 -10.17269  -1.06911  -1.00513  -0.91943
  Beta  occ. eigenvalues --   -0.80174  -0.68619  -0.65609  -0.57062  -0.53191
  Beta  occ. eigenvalues --   -0.49174  -0.47529  -0.45362  -0.43032  -0.41888
  Beta  occ. eigenvalues --   -0.41113  -0.37444  -0.36178  -0.35807  -0.34468
  Beta  occ. eigenvalues --   -0.31195  -0.28748  -0.26598
  Beta virt. eigenvalues --   -0.09426  -0.01295   0.04598   0.05844   0.06751
  Beta virt. eigenvalues --    0.07466   0.09552   0.11377   0.11717   0.12695
  Beta virt. eigenvalues --    0.13273   0.17520   0.19585   0.21222   0.24670

 Mulliken atomic charges:
              1
     1  C   -0.079674
     2  H    0.132734
     3  H    0.129842
     4  C   -0.302326
     5  H    0.140084
     6  C    0.372380
     7  H    0.101819
     8  C   -0.269816
     9  H    0.122812
    10  H    0.113299
    11  O   -0.329030
    12  O   -0.353381
    13  H    0.255632
    14  H    0.106693
    15  O   -0.382237
    16  H    0.241170
 Sum of Mulliken charges=   0.00000

 Dipole moment (field-independent basis, Debye):
    X=     1.0262    Y=     0.8224    Z=     0.6983  Tot=     1.4890
 Quadrupole moment (field-independent basis, Debye-Ang):
   XX=   -44.2090   YY=   -35.9873   ZZ=   -45.0133
   XY=    -0.3755   XZ=     2.2713   YZ=     0.9267

  Exact polarizability:  64.359  12.270  85.985   7.272  19.783  59.709
 Approx polarizability:  94.472  26.669 122.282  17.500  34.261  93.247

 ******    1 imaginary frequencies (negative Signs) ******

                     1                      2                      3
                     A                      A                      A
 Frequencies --  -731.8670                53.5180               157.0767
 Red. masses --    12.8682                 3.4623                 4.3580
 Frc consts  --     4.0610                 0.0058                 0.0634
 IR Inten    --   498.5442                 0.3355                 7.1424

                     4                      5                      6
                     A                      A                      A
 Frequencies --   215.6273               235.8200               253.2565
 Red. masses --     2.4190                 1.2904                 1.2595
 Frc consts  --     0.0663                 0.0423                 0.0476
 IR Inten    --    21.7269                57.9532                57.7218

                     7                      8                      9
                     A                      A                      A
 Frequencies --   298.2044               335.4312               398.1627
 Red. masses --     2.4429                 2.9839                 4.0493
 Frc consts  --     0.1280                 0.1978                 0.3782
 IR Inten    --     2.9234                 9.4096                30.2876

                    10                     11                     12
                     A                      A                      A
 Frequencies --   448.1102               492.1966               521.9462
 Red. masses --     2.2126                 1.1739                 1.3420
 Frc consts  --     0.2618                 0.1676                 0.2154
 IR Inten    --    27.0786                14.5426                53.6677

                    13                     14                     15
                     A                      A                      A
 Frequencies --   551.7403               624.7727               800.9593
 Red. masses --     3.2223                 5.8524                 1.3315
 Frc consts  --     0.5779                 1.3460                 0.5033
 IR Inten    --    19.5020                15.1635                13.3423

                    16                     17                     18
                     A                      A                      A
 Frequencies --   850.8451               920.0700               936.6053
 Red. masses --     1.9404                 1.3511                 1.7401
 Frc consts  --     0.8277                 0.6739                 0.8994
 IR Inten    --     4.5315                 0.7464                22.4949

                    19                     20                     21
                     A                      A                      A
 Frequencies --   974.7709              1077.9779              1097.4856
 Red. masses --     2.5557                 1.3706                 2.3571
 Frc consts  --     1.4307                 0.9384                 1.6727
 IR Inten    --    50.4037                74.4324                 8.7657

                    22                     23                     24
                     A                      A                      A
 Frequencies --  1110.5943              1145.9934              1166.2973
 Red. masses --     3.2362                 2.2954                 1.9710
 Frc consts  --     2.3517                 1.7761                 1.5796
 IR Inten    --   129.6324                13.7337                 4.5822

                    25                     26                     27
                     A                      A                      A
 Frequencies --  1254.2698              1311.3436              1357.9514
 Red. masses --     1.2327                 1.3091                 1.2636
 Frc consts  --     1.1426                 1.3264                 1.3729
 IR Inten    --    40.5725                39.5905                40.5131

                    28                     29                     30
                     A                      A                      A
 Frequencies --  1367.3395              1407.1505              1445.5873
 Red. masses --     1.2609                 1.2440                 1.3865
 Frc consts  --     1.3890                 1.4513                 1.7071
 IR Inten    --    23.9967                 3.4370                 3.0784

                    31                     32                     33
                     A                      A                      A
 Frequencies --  1478.8625              1498.1100              1499.6032
 Red. masses --     1.2642                 1.0464                 1.0558
 Frc consts  --     1.6290                 1.3837                 1.3988
 IR Inten    --     1.2094                 9.1799                 5.1378

                    34                     35                     36
                     A                      A                      A
 Frequencies --  2990.6212              3026.4832              3066.3904
 Red. masses --     1.0839                 1.0349                 1.0865
 Frc consts  --     5.7117                 5.5848                 6.0190
 IR Inten    --    54.0078                27.0941                 3.4724

                    37                     38                     39
                     A                      A                      A
 Frequencies --  3095.4096              3097.9101              3145.6813
 Red. masses --     1.1004                 1.1024                 1.0516
 Frc consts  --     6.2119                 6.2334                 6.1312
 IR Inten    --    35.3897                18.1189                 7.5308

                    40                     41                     42
                     A                      A                      A
 Frequencies --  3252.7340              3762.6361              3807.5918
 Red. masses --     1.1194                 1.0642                 1.0679
 Frc consts  --     6.9783                 8.8764                 9.1218
 IR Inten    --     6.1625                37.9028                68.8653

 - Thermochemistry -
 -------------------
 Temperature   298.150 Kelvin.  Pressure   1.00000 Atm.
 Atom  1 has atomic number  6 and mass  12.00000

 Molecular mass:   105.05517 amu.
 Principal axes and moments of inertia in atomic units:
                           1         2         3
     EIGENVALUES --   418.07382 973.268041229.45118
           X            0.10968   0.96730   0.22868
           Y            0.89331   0.00495  -0.44941
           Z            0.43585  -0.25358   0.86356
 This molecule is an asymmetric top.
 Rotational symmetry number  1.
 Rotational temperatures (Kelvin)      0.20717     0.08899     0.07045
 Rotational constants (GHZ):           4.31680     1.85431     1.46792
    1 imaginary frequencies ignored.
 Zero-point vibrational energy     338143.3 (Joules/Mol)
                                   80.81818 (Kcal/Mol)
 Warning -- explicit consideration of  12 degrees of freedom as
           vibrations may cause significant error
 Vibrational temperatures:     77.00   226.00   310.24   339.29   364.38
          (Kelvin)            429.05   482.61   572.87   644.73   708.16
                              750.96   793.83   898.91  1152.40  1224.17
                             1323.77  1347.56  1402.48  1550.97  1579.04
                             1597.90  1648.83  1678.04  1804.61  1886.73
                             1953.79  1967.29  2024.57  2079.88  2127.75
                             2155.44  2157.59  4302.83  4354.43  4411.85
                             4453.60  4457.20  4525.93  4679.95  5413.59
                             5478.27

 Zero-point correction=                           0.128792 (Hartree/Particle)
 Thermal correction to Energy=                    0.137226
 Thermal correction to Enthalpy=                  0.138170
 Thermal correction to Gibbs Free Energy=         0.095595
 Sum of electronic and zero-point Energies=           -383.317130
 Sum of electronic and thermal Energies=              -383.308696
 Sum of electronic and thermal Enthalpies=            -383.307752
 Sum of electronic and thermal Free Energies=         -383.350327

                     E (Thermal)             CV                S
                      KCal/Mol        Cal/Mol-Kelvin    Cal/Mol-Kelvin
 Total                   86.111             30.753             89.607
 Electronic               0.000              0.000              1.377
 Translational            0.889              2.981             39.865
 Rotational               0.889              2.981             27.705
 Vibrational             84.333             24.791             20.659
 Vibration  1             0.596              1.976              4.683
 Vibration  2             0.621              1.895              2.585
 Vibration  3             0.645              1.817              1.996
 Vibration  4             0.655              1.786              1.834
 Vibration  5             0.664              1.757              1.708
 Vibration  6             0.691              1.677              1.427
 Vibration  7             0.717              1.605              1.234
 Vibration  8             0.764              1.474              0.969
 Vibration  9             0.807              1.365              0.802
 Vibration 10             0.848              1.267              0.678
 Vibration 11             0.877              1.201              0.605
 Vibration 12             0.907              1.136              0.541

 Normal termination of Gaussian 03 at Thu Jul 10 12:45:12 2014.
