 Gaussian 03, Revision D.01,
 Gaussian 03:  AM64L-G03RevD.01 13-Oct-2005

 -------------------------------------
 # freq nosymm b3lyp/cbsb7 iop(7/33=1)
 -------------------------------------

 -------------------
 Title Card Required
 -------------------
 Symbolic Z-matrix:
 Charge =  0 Multiplicity = 1

                          Input orientation:
 ---------------------------------------------------------------------
 Center     Atomic     Atomic              Coordinates (Angstroms)
 Number     Number      Type              X           Y           Z
 ---------------------------------------------------------------------
    1          8             0        0.000919    0.000126   -0.006915
    2          1             0       -0.006697   -0.001273    0.952398
    3          6             0        1.307416   -0.000133   -0.442114
    4          1             0        2.066351   -0.002307    0.336081
    5          6             0        1.633627    0.002072   -1.735069
    6          6             0        0.592877    0.005122   -2.821538
    7          1             0        0.700305   -0.873876   -3.468605
    8          1             0       -0.415910    0.005640   -2.409873
    9          1             0        0.702439    0.886012   -3.465657
   10          6             0        3.077341    0.001601   -2.160268
   11          1             0        3.756951   -0.000902   -1.304307
   12          1             0        3.309026   -0.876840   -2.774950
   13          1             0        3.310719    0.882236   -2.771160
 ---------------------------------------------------------------------

 SCF Done:  E(RB+HF-LYP) =  -232.513285157     A.U. after   14 cycles

 Alpha  occ. eigenvalues --  -19.13674 -10.20853 -10.16110 -10.15993 -10.15341
 Alpha  occ. eigenvalues --   -1.04784  -0.79848  -0.68825  -0.67538  -0.54502
 Alpha  occ. eigenvalues --   -0.52629  -0.45401  -0.42864  -0.39801  -0.38147
 Alpha  occ. eigenvalues --   -0.37360  -0.37127  -0.35956  -0.33704  -0.21099
 Alpha virt. eigenvalues --    0.02846   0.03893   0.05388   0.08215   0.10818
 Alpha virt. eigenvalues --    0.11973   0.12232   0.15043   0.16307   0.20304
 Alpha virt. eigenvalues --    0.22292   0.27181   0.27919   0.29800   0.33495

 Mulliken atomic charges:
              1
     1  O   -0.352722
     2  H    0.248629
     3  C    0.096515
     4  H    0.080529
     5  C   -0.212001
     6  C   -0.252861
     7  H    0.106913
     8  H    0.120995
     9  H    0.106891
    10  C   -0.253837
    11  H    0.094697
    12  H    0.108124
    13  H    0.108128
 Sum of Mulliken charges=   0.00000

 Dipole moment (field-independent basis, Debye):
    X=     0.7021    Y=    -0.0026    Z=     1.4115  Tot=     1.5765
 Quadrupole moment (field-independent basis, Debye-Ang):
   XX=   -31.1580   YY=   -33.4641   ZZ=   -28.7536
   XY=    -0.0020   XZ=    -0.0758   YZ=    -0.0078

  Exact polarizability:  52.590  -0.004  34.994  -6.157  -0.052  65.628
 Approx polarizability:  68.319   0.007  50.027 -11.586  -0.075  95.306

                     1                      2                      3
                     A                      A                      A
 Frequencies --    96.2276               163.0807               206.9762
 Red. masses --     1.2436                 1.1207                 1.0263
 Frc consts  --     0.0068                 0.0176                 0.0259
 IR Inten    --    47.8665                29.6782                36.4554

                     4                      5                      6
                     A                      A                      A
 Frequencies --   265.5793               301.3283               358.6737
 Red. masses --     3.4107                 2.1621                 2.2383
 Frc consts  --     0.1417                 0.1157                 0.1697
 IR Inten    --     1.8919                15.5652                 0.6354

                     7                      8                      9
                     A                      A                      A
 Frequencies --   452.5698               581.3164               814.2749
 Red. masses --     2.1609                 4.4502                 3.2747
 Frc consts  --     0.2608                 0.8860                 1.2793
 IR Inten    --     4.2441                14.0439                 2.0285

                    10                     11                     12
                     A                      A                      A
 Frequencies --   847.1160               973.4338              1012.0285
 Red. masses --     1.4075                 1.3549                 1.2395
 Frc consts  --     0.5951                 0.7565                 0.7480
 IR Inten    --    16.3593                 2.9891                 2.3656

                    13                     14                     15
                     A                      A                      A
 Frequencies --  1043.4644              1100.8162              1168.3036
 Red. masses --     1.6466                 1.5930                 3.8576
 Frc consts  --     1.0563                 1.1373                 3.1023
 IR Inten    --     0.0614                 0.0068               211.6506

                    16                     17                     18
                     A                      A                      A
 Frequencies --  1196.3962              1312.7095              1386.3427
 Red. masses --     1.6239                 1.7575                 1.2127
 Frc consts  --     1.3695                 1.7843                 1.3732
 IR Inten    --    38.7604                69.5345                 0.0651

                    19                     20                     21
                     A                      A                      A
 Frequencies --  1413.2084              1423.6502              1473.3580
 Red. masses --     1.4267                 1.2738                 1.0450
 Frc consts  --     1.6788                 1.5211                 1.3365
 IR Inten    --     6.5730                 0.1297                 1.9823

                    22                     23                     24
                     A                      A                      A
 Frequencies --  1487.4590              1494.7487              1502.6071
 Red. masses --     1.0460                 1.0433                 1.0680
 Frc consts  --     1.3635                 1.3734                 1.4207
 IR Inten    --     7.1925                15.4749                 1.1901

                    25                     26                     27
                     A                      A                      A
 Frequencies --  1766.8733              2997.8209              3005.3537
 Red. masses --     5.6125                 1.0381                 1.0406
 Frc consts  --    10.3232                 5.4969                 5.5374
 IR Inten    --    41.3614                35.4147                59.5568

                    28                     29                     30
                     A                      A                      A
 Frequencies --  3036.2387              3040.8110              3085.2580
 Red. masses --     1.1000                 1.0994                 1.0982
 Frc consts  --     5.9747                 5.9894                 6.1592
 IR Inten    --    29.7723                41.2397                31.8655

                    31                     32                     33
                     A                      A                      A
 Frequencies --  3125.1843              3140.0823              3880.0655
 Red. masses --     1.0952                 1.0918                 1.0670
 Frc consts  --     6.3024                 6.3424                 9.4640
 IR Inten    --    11.6921                26.1432                87.8392

 - Thermochemistry -
 -------------------
 Temperature   298.150 Kelvin.  Pressure   1.00000 Atm.
 Atom  1 has atomic number  8 and mass  15.99491

 Molecular mass:    72.05751 amu.
 Principal axes and moments of inertia in atomic units:
                           1         2         3
     EIGENVALUES --   215.74565 481.84713 675.30921
           X           -0.68693   0.72672   0.00089
           Y           -0.00080  -0.00198   1.00000
           Z            0.72672   0.68693   0.00194
 This molecule is an asymmetric top.
 Rotational symmetry number  1.
 Rotational temperatures (Kelvin)      0.40146     0.17975     0.12826
 Rotational constants (GHZ):           8.36513     3.74546     2.67247
 Zero-point vibrational energy     294002.4 (Joules/Mol)
                                   70.26825 (Kcal/Mol)
 Warning -- explicit consideration of   8 degrees of freedom as
           vibrations may cause significant error
 Vibrational temperatures:    138.45   234.64   297.79   382.11   433.54
          (Kelvin)            516.05   651.15   836.38  1171.56  1218.81
                             1400.55  1456.08  1501.31  1583.83  1680.93
                             1721.35  1888.69  1994.64  2033.29  2048.31
                             2119.83  2140.12  2150.61  2161.91  2542.13
                             4313.19  4324.03  4368.46  4375.04  4438.99
                             4496.44  4517.87  5582.54

 Zero-point correction=                           0.111980 (Hartree/Particle)
 Thermal correction to Energy=                    0.118755
 Thermal correction to Enthalpy=                  0.119699
 Thermal correction to Gibbs Free Energy=         0.082181
 Sum of electronic and zero-point Energies=           -232.401306
 Sum of electronic and thermal Energies=              -232.394530
 Sum of electronic and thermal Enthalpies=            -232.393586
 Sum of electronic and thermal Free Energies=         -232.431105

                     E (Thermal)             CV                S
                      KCal/Mol        Cal/Mol-Kelvin    Cal/Mol-Kelvin
 Total                   74.520             22.835             78.964
 Electronic               0.000              0.000              0.000
 Translational            0.889              2.981             38.741
 Rotational               0.889              2.981             25.754
 Vibrational             72.742             16.874             14.469
 Vibration  1             0.603              1.952              3.529
 Vibration  2             0.623              1.888              2.514
 Vibration  3             0.641              1.830              2.070
 Vibration  4             0.671              1.736              1.625
 Vibration  5             0.693              1.671              1.410
 Vibration  6             0.734              1.557              1.128
 Vibration  7             0.811              1.355              0.788
 Vibration  8             0.938              1.072              0.483

 Optimization completed.
    -- Stationary point found.
 Normal termination of Gaussian 03 at Tue Jul 15 17:17:59 2014.
