 Gaussian 03, Revision D.01,
 Gaussian 03:  AM64L-G03RevD.01 13-Oct-2005

 -------------------------------------
 # freq nosymm b3lyp/cbsb7 iop(7/33=1)
 -------------------------------------

 -------------------
 Title Card Required
 -------------------
 Symbolic Z-matrix:
 Charge =  0 Multiplicity = 2

                          Input orientation:
 ---------------------------------------------------------------------
 Center     Atomic     Atomic              Coordinates (Angstroms)
 Number     Number      Type              X           Y           Z
 ---------------------------------------------------------------------
    1          6             0       -0.680247    0.354105    0.058730
    2          1             0       -1.683827    0.203341   -0.357451
    3          1             0       -0.059201   -0.511985   -0.183066
    4          6             0       -0.714637    0.709857    1.549832
    5          1             0        0.228546    0.393148    2.004801
    6          6             0       -1.891851    0.127787    2.336383
    7          1             0       -1.887232   -0.963722    2.271123
    8          1             0       -1.837108    0.402668    3.393144
    9          1             0       -2.842272    0.489938    1.940174
   10          6             0       -0.673782    2.211622    1.455715
   11          1             0        0.188540    2.794418    1.758749
   12          8             0       -1.866335    2.842723    1.387505
   13          1             0       -1.728073    3.785402    1.247187
   14          8             0       -0.092728    1.554335   -0.464178
   15          8             0        0.271569    1.065913   -2.043626
   16          1             0       -0.032642    1.889297   -2.446852
 ---------------------------------------------------------------------

 SCF Done:  E(UB+HF-LYP) =  -383.441569476     A.U. after   23 cycles

 Alpha  occ. eigenvalues --  -19.17480 -19.13940 -19.10908 -10.25436 -10.20587
 Alpha  occ. eigenvalues --  -10.18982 -10.16720  -1.09005  -1.01806  -0.91253
 Alpha  occ. eigenvalues --   -0.79824  -0.69345  -0.66026  -0.58939  -0.55080
 Alpha  occ. eigenvalues --   -0.49793  -0.46220  -0.45263  -0.42448  -0.41829
 Alpha  occ. eigenvalues --   -0.40704  -0.39933  -0.36419  -0.35931  -0.35245
 Alpha  occ. eigenvalues --   -0.32812  -0.28937  -0.24109  -0.17103
 Alpha virt. eigenvalues --   -0.03553   0.01346   0.05444   0.06397   0.07470
 Alpha virt. eigenvalues --    0.10029   0.10493   0.11431   0.13261   0.14469
 Alpha virt. eigenvalues --    0.16384   0.20129   0.22202   0.23479   0.28726

  Beta  occ. eigenvalues --  -19.17114 -19.13980 -19.09832 -10.24452 -10.20505
  Beta  occ. eigenvalues --  -10.19037 -10.16669  -1.08158  -1.01138  -0.89561
  Beta  occ. eigenvalues --   -0.79367  -0.68289  -0.65523  -0.58704  -0.54314
  Beta  occ. eigenvalues --   -0.49057  -0.45546  -0.44600  -0.42095  -0.41057
  Beta  occ. eigenvalues --   -0.39697  -0.39006  -0.36012  -0.34932  -0.34821
  Beta  occ. eigenvalues --   -0.31336  -0.28328  -0.23556
  Beta virt. eigenvalues --   -0.06291   0.00761   0.01584   0.05518   0.06687
  Beta virt. eigenvalues --    0.07873   0.10131   0.10805   0.11531   0.13320
  Beta virt. eigenvalues --    0.14536   0.16650   0.20525   0.22672   0.24292

 Mulliken atomic charges:
              1
     1  C    0.145302
     2  H    0.089714
     3  H    0.113200
     4  C   -0.293238
     5  H    0.131172
     6  C   -0.265059
     7  H    0.111493
     8  H    0.106615
     9  H    0.121642
    10  C    0.114257
    11  H    0.118912
    12  O   -0.301191
    13  H    0.261678
    14  O   -0.348282
    15  O   -0.347029
    16  H    0.240813
 Sum of Mulliken charges=   0.00000

 Dipole moment (field-independent basis, Debye):
    X=    -1.0667    Y=     2.1755    Z=     2.4833  Tot=     3.4695
 Quadrupole moment (field-independent basis, Debye-Ang):
   XX=   -44.6200   YY=   -28.1669   ZZ=   -41.3249
   XY=    -2.7775   XZ=     2.1322   YZ=     2.1158

  Exact polarizability:  55.418  -3.487  64.739 -17.386  10.188 101.272
 Approx polarizability:  81.453 -10.412  90.566 -29.273  26.655 159.386

 ******    1 imaginary frequencies (negative Signs) ******

                     1                      2                      3
                     A                      A                      A
 Frequencies --  -645.4574                77.8779                95.4342
 Red. masses --    12.2009                 1.3075                 2.1244
 Frc consts  --     2.9949                 0.0047                 0.0114
 IR Inten    --   599.0465                54.7998                49.1481

                     4                      5                      6
                     A                      A                      A
 Frequencies --   106.0490               205.2430               223.5692
 Red. masses --     5.1664                 3.3106                 1.5748
 Frc consts  --     0.0342                 0.0822                 0.0464
 IR Inten    --     0.5977                22.8964                 9.8347

                     7                      8                      9
                     A                      A                      A
 Frequencies --   238.1125               278.0678               361.1775
 Red. masses --     1.9754                 4.0637                 2.0167
 Frc consts  --     0.0660                 0.1851                 0.1550
 IR Inten    --     2.6697                 7.8023                69.6702

                    10                     11                     12
                     A                      A                      A
 Frequencies --   385.0426               411.3118               539.7952
 Red. masses --     2.8981                 1.6889                 2.7457
 Frc consts  --     0.2531                 0.1683                 0.4714
 IR Inten    --     2.3714               119.4322                 0.0961

                    13                     14                     15
                     A                      A                      A
 Frequencies --   605.4989               693.7532               823.3738
 Red. masses --     2.0199                 1.7003                 2.8962
 Frc consts  --     0.4363                 0.4822                 1.1568
 IR Inten    --     4.2943                34.8276                 6.7464

                    16                     17                     18
                     A                      A                      A
 Frequencies --   928.1907               958.1660              1002.6484
 Red. masses --     1.5277                 1.3754                 1.9006
 Frc consts  --     0.7755                 0.7440                 1.1257
 IR Inten    --     1.9106                 3.8778                77.3285

                    19                     20                     21
                     A                      A                      A
 Frequencies --  1042.0810              1097.5639              1110.9942
 Red. masses --     1.8039                 2.0211                 2.0058
 Frc consts  --     1.1542                 1.4345                 1.4587
 IR Inten    --    20.4169                46.2702                30.2512

                    22                     23                     24
                     A                      A                      A
 Frequencies --  1155.5999              1199.5873              1242.7087
 Red. masses --     1.8827                 1.1426                 1.4104
 Frc consts  --     1.4813                 0.9688                 1.2833
 IR Inten    --     2.0675                10.9108                14.0320

                    25                     26                     27
                     A                      A                      A
 Frequencies --  1257.2317              1318.0949              1344.7339
 Red. masses --     2.1206                 1.2668                 1.3319
 Frc consts  --     1.9749                 1.2967                 1.4190
 IR Inten    --   212.8252                 1.4059                14.7392

                    28                     29                     30
                     A                      A                      A
 Frequencies --  1375.7603              1408.4437              1465.2961
 Red. masses --     1.5006                 1.2619                 1.6021
 Frc consts  --     1.6734                 1.4749                 2.0266
 IR Inten    --    16.4322                 1.7901                16.8182

                    31                     32                     33
                     A                      A                      A
 Frequencies --  1495.1828              1505.0683              1521.7883
 Red. masses --     1.0445                 1.0902                 1.1008
 Frc consts  --     1.3758                 1.4550                 1.5020
 IR Inten    --     6.7493                14.0597                 0.9696

                    34                     35                     36
                     A                      A                      A
 Frequencies --  3005.5012              3031.8833              3045.1577
 Red. masses --     1.0621                 1.0360                 1.0843
 Frc consts  --     5.6527                 5.6109                 5.9238
 IR Inten    --    50.1508                31.2722                 9.3703

                    37                     38                     39
                     A                      A                      A
 Frequencies --  3073.9318              3092.0767              3111.8986
 Red. masses --     1.1022                 1.1022                 1.1011
 Frc consts  --     6.1363                 6.2086                 6.2825
 IR Inten    --    43.2040                22.2381                27.4177

                    40                     41                     42
                     A                      A                      A
 Frequencies --  3169.4448              3807.0113              3827.8984
 Red. masses --     1.0915                 1.0680                 1.0662
 Frc consts  --     6.4601                 9.1201                 9.2050
 IR Inten    --    21.2212                46.3020               101.8242

 - Thermochemistry -
 -------------------
 Temperature   298.150 Kelvin.  Pressure   1.00000 Atm.
 Atom  1 has atomic number  6 and mass  12.00000

 Molecular mass:   105.05517 amu.
 Principal axes and moments of inertia in atomic units:
                           1         2         3
     EIGENVALUES --   441.828861058.579541347.11367
           X           -0.43958  -0.04890   0.89687
           Y            0.04798   0.99581   0.07782
           Z            0.89692  -0.07724   0.43540
 This molecule is an asymmetric top.
 Rotational symmetry number  1.
 Warning -- assumption of classical behavior for rotation
           may cause significant error
 Rotational temperatures (Kelvin)      0.19603     0.08182     0.06430
 Rotational constants (GHZ):           4.08471     1.70487     1.33971
    1 imaginary frequencies ignored.
 Zero-point vibrational energy     338772.0 (Joules/Mol)
                                   80.96844 (Kcal/Mol)
 Warning -- explicit consideration of  12 degrees of freedom as
           vibrations may cause significant error
 Vibrational temperatures:    112.05   137.31   152.58   295.30   321.67
          (Kelvin)            342.59   400.08   519.65   553.99   591.79
                              776.64   871.18   998.15  1184.65  1335.46
                             1378.59  1442.59  1499.32  1579.15  1598.47
                             1662.65  1725.94  1787.98  1808.87  1896.44
                             1934.77  1979.41  2026.43  2108.23  2151.23
                             2165.46  2189.51  4324.24  4362.20  4381.30
                             4422.70  4448.80  4477.32  4560.12  5477.43
                             5507.49

 Zero-point correction=                           0.129031 (Hartree/Particle)
 Thermal correction to Energy=                    0.137977
 Thermal correction to Enthalpy=                  0.138922
 Thermal correction to Gibbs Free Energy=         0.094842
 Sum of electronic and zero-point Energies=           -383.312538
 Sum of electronic and thermal Energies=              -383.303592
 Sum of electronic and thermal Enthalpies=            -383.302648
 Sum of electronic and thermal Free Energies=         -383.346727

                     E (Thermal)             CV                S
                      KCal/Mol        Cal/Mol-Kelvin    Cal/Mol-Kelvin
 Total                   86.582             30.821             92.772
 Electronic               0.000              0.000              1.377
 Translational            0.889              2.981             39.865
 Rotational               0.889              2.981             27.935
 Vibrational             84.805             24.859             23.595
 Vibration  1             0.599              1.964              3.944
 Vibration  2             0.603              1.952              3.545
 Vibration  3             0.605              1.944              3.340
 Vibration  4             0.640              1.832              2.086
 Vibration  5             0.649              1.805              1.930
 Vibration  6             0.656              1.782              1.817
 Vibration  7             0.679              1.714              1.546
 Vibration  8             0.735              1.552              1.117
 Vibration  9             0.754              1.502              1.019
 Vibration 10             0.775              1.446              0.922
 Vibration 11             0.895              1.162              0.566
 Vibration 12             0.964              1.020              0.440

 Optimization completed.
    -- Stationary point found.
 Normal termination of Gaussian 03 at Tue Jun 18 10:21:05 2013.
