 Gaussian 03, Revision D.01,
 Gaussian 03:  AM64L-G03RevD.01 13-Oct-2005

 -------------------------------------
 # freq nosymm b3lyp/cbsb7 iop(7/33=1)
 -------------------------------------

 -------
 NBO NRT
 -------
 Symbolic Z-matrix:
 Charge =  0 Multiplicity = 2

                          Input orientation:
 ---------------------------------------------------------------------
 Center     Atomic     Atomic              Coordinates (Angstroms)
 Number     Number      Type              X           Y           Z
 ---------------------------------------------------------------------
    1          6             0        1.052310   -0.807340   -0.375650
    2          1             0        1.138030   -0.627860   -1.461680
    3          1             0        2.008010   -0.550950    0.087620
    4          6             0        0.715040   -2.296760   -0.097930
    5          1             0        0.584210   -2.361780    0.994580
    6          6             0        1.834470   -3.245500   -0.531450
    7          1             0        2.754390   -3.033870    0.018130
    8          1             0        1.565130   -4.286870   -0.337720
    9          1             0        2.046890   -3.145380   -1.600160
   10          6             0       -0.585830   -2.598100   -0.756410
   11          1             0       -0.784680   -3.479870   -1.355820
   12          8             0       -1.569730   -1.730270   -0.670320
   13          1             0       -1.192200   -0.897110   -0.238500
   14          8             0        0.036830    0.048490    0.082440
   15          8             0        0.339150    0.159670    1.790070
   16          1             0        0.095630    1.094730    1.836040
 ---------------------------------------------------------------------

 SCF Done:  E(UB+HF-LYP) =  -383.447607727     A.U. after   29 cycles

 Alpha  occ. eigenvalues --  -19.16818 -19.15308 -19.12509 -10.25365 -10.22734
 Alpha  occ. eigenvalues --  -10.19643 -10.17889  -1.09164  -1.03230  -0.92953
 Alpha  occ. eigenvalues --   -0.81415  -0.69093  -0.66766  -0.61798  -0.53657
 Alpha  occ. eigenvalues --   -0.49814  -0.46940  -0.46436  -0.44462  -0.42855
 Alpha  occ. eigenvalues --   -0.41502  -0.40963  -0.39294  -0.37322  -0.36615
 Alpha  occ. eigenvalues --   -0.33146  -0.30083  -0.26327  -0.15319
 Alpha virt. eigenvalues --   -0.11273   0.04034   0.05821   0.07147   0.07558
 Alpha virt. eigenvalues --    0.09545   0.10396   0.12083   0.13202   0.13799
 Alpha virt. eigenvalues --    0.18037   0.20067   0.21121   0.23058   0.23473

  Beta  occ. eigenvalues --  -19.16550 -19.14899 -19.11607 -10.24517 -10.22699
  Beta  occ. eigenvalues --  -10.19706 -10.17880  -1.08487  -1.02097  -0.91291
  Beta  occ. eigenvalues --   -0.81016  -0.68572  -0.65815  -0.61559  -0.52993
  Beta  occ. eigenvalues --   -0.49363  -0.46278  -0.45552  -0.43842  -0.42631
  Beta  occ. eigenvalues --   -0.40698  -0.39612  -0.38928  -0.36626  -0.36001
  Beta  occ. eigenvalues --   -0.31677  -0.29358  -0.25643
  Beta virt. eigenvalues --   -0.06201  -0.05200   0.04135   0.06080   0.07314
  Beta virt. eigenvalues --    0.07840   0.09692   0.10623   0.12209   0.13275
  Beta virt. eigenvalues --    0.13978   0.18273   0.20203   0.21238   0.23391

 Mulliken atomic charges:
              1
     1  C    0.046868
     2  H    0.111397
     3  H    0.128659
     4  C   -0.271210
     5  H    0.161434
     6  C   -0.290343
     7  H    0.119765
     8  H    0.118053
     9  H    0.106142
    10  C    0.101164
    11  H    0.124202
    12  O   -0.271906
    13  H    0.287214
    14  O   -0.370689
    15  O   -0.346300
    16  H    0.245549
 Sum of Mulliken charges=   0.00000

 Dipole moment (field-independent basis, Debye):
    X=     1.3259    Y=    -1.1616    Z=    -1.1491  Tot=     2.1042
 Quadrupole moment (field-independent basis, Debye-Ang):
   XX=   -43.9282   YY=   -34.9076   ZZ=   -44.4446
   XY=    -3.0386   XZ=    -1.8949   YZ=     3.7362

  Exact polarizability:  66.799  20.278 133.240  13.734  51.140  85.499
 Approx polarizability: 113.769  83.469 325.220  58.812 163.935 198.337

 ******    1 imaginary frequencies (negative Signs) ******

                     1                      2                      3
                     A                      A                      A
 Frequencies --  -947.0457                69.0529               107.8344
 Red. masses --     5.1468                 5.7895                 3.0230
 Frc consts  --     2.7197                 0.0163                 0.0207
 IR Inten    --  4465.7146                 2.3279                25.0433

                     4                      5                      6
                     A                      A                      A
 Frequencies --   137.1535               201.5537               210.8522
 Red. masses --     1.1550                 1.0910                 3.0627
 Frc consts  --     0.0128                 0.0261                 0.0802
 IR Inten    --    71.7890                 0.0471                 3.1231

                     7                      8                      9
                     A                      A                      A
 Frequencies --   291.4857               327.1986               346.0602
 Red. masses --     2.4064                 3.6875                 3.2504
 Frc consts  --     0.1205                 0.2326                 0.2293
 IR Inten    --     1.3336                32.9715                34.5945

                    10                     11                     12
                     A                      A                      A
 Frequencies --   393.4284               466.7471               529.6316
 Red. masses --     1.8318                 4.5813                 2.1283
 Frc consts  --     0.1671                 0.5880                 0.3517
 IR Inten    --     4.9681                 8.3356                10.3254

                    13                     14                     15
                     A                      A                      A
 Frequencies --   572.6370               842.9937               906.6229
 Red. masses --     3.6342                 2.1610                 1.6457
 Frc consts  --     0.7021                 0.9048                 0.7970
 IR Inten    --    12.9075                 7.0814                11.7326

                    16                     17                     18
                     A                      A                      A
 Frequencies --   931.0192               944.6807               973.0300
 Red. masses --     1.2979                 1.4352                 1.4919
 Frc consts  --     0.6629                 0.7546                 0.8322
 IR Inten    --    48.1936                21.8484                82.4652

                    19                     20                     21
                     A                      A                      A
 Frequencies --  1034.4524              1087.2027              1108.8441
 Red. masses --     2.3309                 2.1969                 2.2803
 Frc consts  --     1.4696                 1.5300                 1.6519
 IR Inten    --    25.2604                16.6842                 0.5998

                    22                     23                     24
                     A                      A                      A
 Frequencies --  1169.8309              1224.1318              1262.0741
 Red. masses --     1.8595                 1.1942                 1.5327
 Frc consts  --     1.4993                 1.0543                 1.4384
 IR Inten    --     3.8525                 7.3669               234.2798

                    25                     26                     27
                     A                      A                      A
 Frequencies --  1295.0116              1327.1345              1345.2848
 Red. masses --     1.2414                 1.3984                 1.4828
 Frc consts  --     1.2267                 1.4512                 1.5811
 IR Inten    --    28.9644                16.8698                21.9103

                    28                     29                     30
                     A                      A                      A
 Frequencies --  1384.9442              1415.9942              1455.3882
 Red. masses --     1.9745                 1.2455                 1.0799
 Frc consts  --     2.2314                 1.4714                 1.3477
 IR Inten    --   240.1094                 7.7381                 2.2836

                    31                     32                     33
                     A                      A                      A
 Frequencies --  1500.0579              1502.4173              1567.2378
 Red. masses --     1.0422                 1.0480                 1.3946
 Frc consts  --     1.3818                 1.3938                 2.0182
 IR Inten    --     8.0381                 6.7407               185.7643

                    34                     35                     36
                     A                      A                      A
 Frequencies --  2752.1496              2940.2933              2953.8152
 Red. masses --     1.0845                 1.0713                 1.0784
 Frc consts  --     4.8399                 5.4571                 5.5439
 IR Inten    --   823.7829                19.8684                35.2423

                    37                     38                     39
                     A                      A                      A
 Frequencies --  3028.7309              3072.5205              3090.4210
 Red. masses --     1.0361                 1.0912                 1.1012
 Frc consts  --     5.5999                 6.0696                 6.1967
 IR Inten    --    27.6299                16.5285                26.3349

                    40                     41                     42
                     A                      A                      A
 Frequencies --  3101.7778              3182.6009              3794.8868
 Red. masses --     1.1018                 1.0915                 1.0681
 Frc consts  --     6.2453                 6.5138                 9.0628
 IR Inten    --    13.4488                 0.9446               145.3033

 - Thermochemistry -
 -------------------
 Temperature   298.150 Kelvin.  Pressure   1.00000 Atm.
 Atom  1 has atomic number  6 and mass  12.00000

 Molecular mass:   105.05517 amu.
 Principal axes and moments of inertia in atomic units:
                           1         2         3
     EIGENVALUES --   550.96452 898.070431238.14496
           X           -0.14390   0.95948  -0.24227
           Y            0.86479   0.00291  -0.50213
           Z            0.48107   0.28177   0.83017
 This molecule is an asymmetric top.
 Rotational symmetry number  1.
 Warning -- assumption of classical behavior for rotation
           may cause significant error
 Rotational temperatures (Kelvin)      0.15720     0.09644     0.06995
 Rotational constants (GHZ):           3.27560     2.00958     1.45762
    1 imaginary frequencies ignored.
 Zero-point vibrational energy     334052.3 (Joules/Mol)
                                   79.84042 (Kcal/Mol)
 Warning -- explicit consideration of  12 degrees of freedom as
           vibrations may cause significant error
 Vibrational temperatures:     99.35   155.15   197.33   289.99   303.37
          (Kelvin)            419.38   470.77   497.90   566.05   671.54
                              762.02   823.90  1212.88  1304.43  1339.53
                             1359.18  1399.97  1488.34  1564.24  1595.38
                             1683.12  1761.25  1815.84  1863.23  1909.45
                             1935.56  1992.62  2037.30  2093.98  2158.25
                             2161.64  2254.90  3959.72  4230.42  4249.88
                             4357.66  4420.67  4446.42  4462.76  4579.05
                             5459.99

 Zero-point correction=                           0.127234 (Hartree/Particle)
 Thermal correction to Energy=                    0.135927
 Thermal correction to Enthalpy=                  0.136871
 Thermal correction to Gibbs Free Energy=         0.093389
 Sum of electronic and zero-point Energies=           -383.320374
 Sum of electronic and thermal Energies=              -383.311681
 Sum of electronic and thermal Enthalpies=            -383.310737
 Sum of electronic and thermal Free Energies=         -383.354219

                     E (Thermal)             CV                S
                      KCal/Mol        Cal/Mol-Kelvin    Cal/Mol-Kelvin
 Total                   85.295             30.220             91.516
 Electronic               0.000              0.000              1.377
 Translational            0.889              2.981             39.865
 Rotational               0.889              2.981             27.907
 Vibrational             83.518             24.259             22.367
 Vibration  1             0.598              1.969              4.180
 Vibration  2             0.606              1.943              3.308
 Vibration  3             0.614              1.916              2.843
 Vibration  4             0.638              1.838              2.119
 Vibration  5             0.643              1.824              2.036
 Vibration  6             0.687              1.690              1.465
 Vibration  7             0.711              1.621              1.274
 Vibration  8             0.724              1.583              1.184
 Vibration  9             0.761              1.484              0.987
 Vibration 10             0.824              1.324              0.747
 Vibration 11             0.885              1.184              0.588
 Vibration 12             0.929              1.090              0.499

 Optimization completed.
    -- Stationary point found.
 Normal termination of Gaussian 03 at Tue Sep 24 06:16:22 2019.
