 Gaussian 03, Revision D.01,
 Gaussian 03:  AM64L-G03RevD.01 13-Oct-2005

 -------------------------------------
 # freq nosymm b3lyp/cbsb7 iop(7/33=1)
 -------------------------------------

 -------------------
 Title Card Required
 -------------------
 Symbolic Z-matrix:
 Charge =  0 Multiplicity = 2

                          Input orientation:
 ---------------------------------------------------------------------
 Center     Atomic     Atomic              Coordinates (Angstroms)
 Number     Number      Type              X           Y           Z
 ---------------------------------------------------------------------
    1          6             0       -3.404823    1.393471    0.055772
    2          1             0       -3.089593    1.550161    1.089125
    3          1             0       -2.846023    2.096841   -0.577004
    4          6             0       -3.116596   -0.002948   -0.392123
    5          6             0       -1.791687   -0.604486   -0.034990
    6          1             0       -1.740746   -1.664618   -0.292428
    7          1             0       -0.994592   -0.087594   -0.585882
    8          1             0       -1.583417   -0.494090    1.030982
    9          6             0       -3.926928   -0.642494   -1.332972
   10          1             0       -3.445967   -1.392291   -1.969311
   11          1             0       -4.555612   -1.404722   -0.445848
   12          8             0       -4.207709   -0.997893    1.404060
   13          8             0       -4.958808   -1.776093    0.723960
   14          1             0       -4.461483    1.632421   -0.050172
   15          8             0       -4.895593    0.142213   -1.988507
   16          1             0       -5.670890   -0.403051   -2.150969
 ---------------------------------------------------------------------

 SCF Done:  E(UB+HF-LYP) =  -383.447540450     A.U. after   22 cycles

 Alpha  occ. eigenvalues --  -19.20137 -19.18996 -19.13395 -10.22288 -10.21985
 Alpha  occ. eigenvalues --  -10.18116 -10.17261  -1.19009  -1.04135  -0.82884
 Alpha  occ. eigenvalues --   -0.79639  -0.71191  -0.70008  -0.55665  -0.54327
 Alpha  occ. eigenvalues --   -0.51447  -0.48261  -0.47813  -0.46352  -0.43613
 Alpha  occ. eigenvalues --   -0.42676  -0.40195  -0.40086  -0.38916  -0.37180
 Alpha  occ. eigenvalues --   -0.32694  -0.27940  -0.26361  -0.24268
 Alpha virt. eigenvalues --   -0.04460   0.02994   0.04606   0.07433   0.09385
 Alpha virt. eigenvalues --    0.10019   0.10894   0.13569   0.14105   0.15528
 Alpha virt. eigenvalues --    0.17588   0.20119   0.20421   0.24805   0.26025

  Beta  occ. eigenvalues --  -19.18738 -19.17208 -19.13393 -10.22380 -10.21967
  Beta  occ. eigenvalues --  -10.18109 -10.17255  -1.15883  -1.04126  -0.82978
  Beta  occ. eigenvalues --   -0.75397  -0.71191  -0.69801  -0.55587  -0.54034
  Beta  occ. eigenvalues --   -0.51018  -0.47636  -0.44764  -0.43530  -0.42546
  Beta  occ. eigenvalues --   -0.40623  -0.39982  -0.38916  -0.38696  -0.37184
  Beta  occ. eigenvalues --   -0.32495  -0.27218  -0.23166
  Beta virt. eigenvalues --   -0.08975  -0.04289   0.03020   0.04636   0.07475
  Beta virt. eigenvalues --    0.09435   0.10087   0.10893   0.13564   0.14117
  Beta virt. eigenvalues --    0.16270   0.17662   0.20269   0.21431   0.24900

 Mulliken atomic charges:
              1
     1  C   -0.212855
     2  H    0.120432
     3  H    0.121205
     4  C   -0.173601
     5  C   -0.226198
     6  H    0.111689
     7  H    0.121841
     8  H    0.131267
     9  C   -0.025192
    10  H    0.124960
    11  H    0.242615
    12  O   -0.172194
    13  O   -0.156275
    14  H    0.128947
    15  O   -0.386065
    16  H    0.249423
 Sum of Mulliken charges=   0.00000

 Dipole moment (field-independent basis, Debye):
    X=     1.2174    Y=     0.1302    Z=    -1.8191  Tot=     2.1927
 Quadrupole moment (field-independent basis, Debye-Ang):
   XX=   -48.2532   YY=   -43.5984   ZZ=   -45.5795
   XY=    -0.5974   XZ=    10.0150   YZ=     5.9994

  Exact polarizability:  68.876  10.753  64.024   1.806  -1.641  64.038
 Approx polarizability: 107.261  30.307  99.474  -1.529  -5.707 104.687

 ******    1 imaginary frequencies (negative Signs) ******

                     1                      2                      3
                     A                      A                      A
 Frequencies -- -1044.0915               122.2376               145.4072
 Red. masses --     1.3479                 3.2352                 2.8557
 Frc consts  --     0.8658                 0.0285                 0.0356
 IR Inten    --   263.0442                 0.1427                 4.2525

                     4                      5                      6
                     A                      A                      A
 Frequencies --   155.6092               187.0894               202.8216
 Red. masses --     1.3095                 3.6794                 1.1810
 Frc consts  --     0.0187                 0.0759                 0.0286
 IR Inten    --     3.1731                 8.2161                 2.0949

                     7                      8                      9
                     A                      A                      A
 Frequencies --   242.7900               279.9399               285.4257
 Red. masses --     4.4624                 1.9455                 1.5215
 Frc consts  --     0.1550                 0.0898                 0.0730
 IR Inten    --     6.0651                77.9229                51.9508

                    10                     11                     12
                     A                      A                      A
 Frequencies --   365.1213               412.1729               544.9117
 Red. masses --     2.2570                 3.2287                 3.4133
 Frc consts  --     0.1773                 0.3232                 0.5971
 IR Inten    --     8.9185                41.7653                 6.3962

                    13                     14                     15
                     A                      A                      A
 Frequencies --   569.5533               664.1705               821.0950
 Red. masses --     3.5273                 5.1485                 3.3691
 Frc consts  --     0.6742                 1.3381                 1.3383
 IR Inten    --    14.2766                 7.4723                 6.6538

                    16                     17                     18
                     A                      A                      A
 Frequencies --   934.9449               969.3998              1006.9761
 Red. masses --     1.3096                 1.2286                 1.3406
 Frc consts  --     0.6745                 0.6802                 0.8009
 IR Inten    --     7.5190                11.6986                18.7524

                    19                     20                     21
                     A                      A                      A
 Frequencies --  1024.5115              1092.1836              1123.8401
 Red. masses --     1.8028                 1.7102                 3.1056
 Frc consts  --     1.1149                 1.2019                 2.3110
 IR Inten    --     4.6507                51.2005               115.2271

                    22                     23                     24
                     A                      A                      A
 Frequencies --  1230.1337              1281.5452              1308.0739
 Red. masses --     1.6114                 1.2122                 4.3536
 Frc consts  --     1.4367                 1.1730                 4.3889
 IR Inten    --    43.9316                38.3119               173.2796

                    25                     26                     27
                     A                      A                      A
 Frequencies --  1316.2895              1362.7825              1407.7830
 Red. masses --     1.5334                 1.2880                 1.4075
 Frc consts  --     1.5653                 1.4093                 1.6435
 IR Inten    --    39.9200                11.6018                13.9738

                    28                     29                     30
                     A                      A                      A
 Frequencies --  1415.5265              1465.9631              1471.6017
 Red. masses --     1.2646                 1.0721                 1.0861
 Frc consts  --     1.4930                 1.3575                 1.3858
 IR Inten    --     7.4703                 4.0482                 3.0378

                    31                     32                     33
                     A                      A                      A
 Frequencies --  1475.7639              1494.2088              1576.2636
 Red. masses --     1.0877                 1.0575                 1.4642
 Frc consts  --     1.3957                 1.3911                 2.1435
 IR Inten    --     7.2115                10.1087                36.6973

                    34                     35                     36
                     A                      A                      A
 Frequencies --  1614.3726              3002.1011              3006.8371
 Red. masses --     1.8157                 1.0505                 1.0502
 Frc consts  --     2.7880                 5.5782                 5.5944
 IR Inten    --     6.5033                 5.6441                36.0750

                    37                     38                     39
                     A                      A                      A
 Frequencies --  3048.1770              3074.5797              3082.5146
 Red. masses --     1.0855                 1.0850                 1.0820
 Frc consts  --     5.9424                 6.0429                 6.0573
 IR Inten    --    24.0965                11.6771                13.7752

                    40                     41                     42
                     A                      A                      A
 Frequencies --  3111.2337              3142.8294              3833.5221
 Red. masses --     1.1029                 1.1004                 1.0670
 Frc consts  --     6.2903                 6.4036                 9.2390
 IR Inten    --    17.7700                 6.4243                47.2892

 - Thermochemistry -
 -------------------
 Temperature   298.150 Kelvin.  Pressure   1.00000 Atm.
 Atom  1 has atomic number  6 and mass  12.00000

 Molecular mass:   105.05517 amu.
 Principal axes and moments of inertia in atomic units:
                           1         2         3
     EIGENVALUES --   699.51704 782.686591064.23658
           X           -0.13738   0.88820  -0.43843
           Y           -0.59043   0.28197   0.75624
           Z            0.79531   0.36275   0.48568
 This molecule is an asymmetric top.
 Rotational symmetry number  1.
 Warning -- assumption of classical behavior for rotation
           may cause significant error
 Rotational temperatures (Kelvin)      0.12382     0.11066     0.08139
 Rotational constants (GHZ):           2.57998     2.30583     1.69581
    1 imaginary frequencies ignored.
 Zero-point vibrational energy     328209.3 (Joules/Mol)
                                   78.44390 (Kcal/Mol)
 Warning -- explicit consideration of  12 degrees of freedom as
           vibrations may cause significant error
 Vibrational temperatures:    175.87   209.21   223.89   269.18   291.81
          (Kelvin)            349.32   402.77   410.66   525.33   593.02
                              784.01   819.46   955.59  1181.37  1345.18
                             1394.75  1448.81  1474.04  1571.41  1616.95
                             1769.89  1843.86  1882.02  1893.84  1960.74
                             2025.48  2036.62  2109.19  2117.30  2123.29
                             2149.83  2267.89  2322.72  4319.35  4326.16
                             4385.64  4423.63  4435.05  4476.37  4521.83
                             5515.58

 Zero-point correction=                           0.125008 (Hartree/Particle)
 Thermal correction to Energy=                    0.133857
 Thermal correction to Enthalpy=                  0.134801
 Thermal correction to Gibbs Free Energy=         0.091533
 Sum of electronic and zero-point Energies=           -383.322532
 Sum of electronic and thermal Energies=              -383.313684
 Sum of electronic and thermal Enthalpies=            -383.312739
 Sum of electronic and thermal Free Energies=         -383.356007

                     E (Thermal)             CV                S
                      KCal/Mol        Cal/Mol-Kelvin    Cal/Mol-Kelvin
 Total                   83.996             30.846             91.065
 Electronic               0.000              0.000              1.377
 Translational            0.889              2.981             39.865
 Rotational               0.889              2.981             27.857
 Vibrational             82.219             24.884             21.966
 Vibration  1             0.610              1.931              3.065
 Vibration  2             0.617              1.908              2.731
 Vibration  3             0.620              1.896              2.602
 Vibration  4             0.632              1.858              2.256
 Vibration  5             0.639              1.836              2.107
 Vibration  6             0.659              1.775              1.782
 Vibration  7             0.680              1.711              1.534
 Vibration  8             0.683              1.701              1.501
 Vibration  9             0.738              1.544              1.100
 Vibration 10             0.776              1.444              0.919
 Vibration 11             0.900              1.151              0.555
 Vibration 12             0.926              1.097              0.505

 Optimization completed.
    -- Stationary point found.
 Normal termination of Gaussian 03 at Sun Jun  9 18:18:31 2013.
