 Gaussian 03, Revision D.01,
 Gaussian 03:  AM64L-G03RevD.01 13-Oct-2005

 -------------------------------------
 # freq nosymm b3lyp/cbsb7 iop(7/33=1)
 -------------------------------------

 -------------------
 Title Card Required
 -------------------
 Symbolic Z-matrix:
 Charge =  0 Multiplicity = 2

                          Input orientation:
 ---------------------------------------------------------------------
 Center     Atomic     Atomic              Coordinates (Angstroms)
 Number     Number      Type              X           Y           Z
 ---------------------------------------------------------------------
    1          8             0        2.436834   -0.580940    0.219287
    2          1             0        2.811124   -0.177552    1.013542
    3          8             0        1.010192   -0.563940    0.598790
    4          6             0        0.316901    0.071546   -0.491089
    5          1             0        0.557312   -0.504691   -1.395749
    6          8             0        0.711551    1.406310   -0.633907
    7          1             0        1.649912    1.385108   -0.853684
    8          6             0       -1.129495   -0.032383   -0.141679
    9          6             0       -1.775928    1.032367    0.678151
   10          1             0       -1.786443    0.761937    1.746114
   11          1             0       -1.248839    1.981063    0.581992
   12          1             0       -2.821852    1.173726    0.383590
   13          6             0       -1.814949   -1.342005   -0.343501
   14          1             0       -1.333323   -1.941850   -1.120205
   15          1             0       -1.809178   -1.945765    0.577142
   16          1             0       -2.866503   -1.200549   -0.617397
 ---------------------------------------------------------------------

 SCF Done:  E(UB+HF-LYP) =  -383.479078189     A.U. after   17 cycles

 Alpha  occ. eigenvalues --  -19.17512 -19.17301 -19.12486 -10.27220 -10.19175
 Alpha  occ. eigenvalues --  -10.16912 -10.16224  -1.12151  -1.03691  -0.91731
 Alpha  occ. eigenvalues --   -0.80353  -0.70043  -0.67355  -0.55632  -0.53958
 Alpha  occ. eigenvalues --   -0.53056  -0.47939  -0.46334  -0.43444  -0.42369
 Alpha  occ. eigenvalues --   -0.40729  -0.39293  -0.37714  -0.36027  -0.35593
 Alpha  occ. eigenvalues --   -0.33605  -0.29653  -0.27100  -0.19789
 Alpha virt. eigenvalues --    0.00242   0.03524   0.05566   0.07383   0.08013
 Alpha virt. eigenvalues --    0.10493   0.10809   0.12228   0.13960   0.15927
 Alpha virt. eigenvalues --    0.18181   0.19997   0.22512   0.26294   0.27460

  Beta  occ. eigenvalues --  -19.17381 -19.17188 -19.12463 -10.27296 -10.17815
  Beta  occ. eigenvalues --  -10.16993 -10.16300  -1.11849  -1.03596  -0.91338
  Beta  occ. eigenvalues --   -0.78625  -0.69800  -0.67004  -0.54932  -0.53587
  Beta  occ. eigenvalues --   -0.52121  -0.47567  -0.45967  -0.42189  -0.41935
  Beta  occ. eigenvalues --   -0.40241  -0.38664  -0.37484  -0.35657  -0.35152
  Beta  occ. eigenvalues --   -0.33472  -0.29440  -0.26944
  Beta virt. eigenvalues --   -0.06709   0.01284   0.03653   0.05763   0.07495
  Beta virt. eigenvalues --    0.08079   0.10645   0.11104   0.12430   0.14241
  Beta virt. eigenvalues --    0.15988   0.19352   0.20791   0.22804   0.26740

 Mulliken atomic charges:
              1
     1  O   -0.289691
     2  H    0.267981
     3  O   -0.256855
     4  C    0.291459
     5  H    0.108407
     6  O   -0.383065
     7  H    0.237566
     8  C   -0.171412
     9  C   -0.261384
    10  H    0.115520
    11  H    0.133095
    12  H    0.110360
    13  C   -0.248342
    14  H    0.108233
    15  H    0.123834
    16  H    0.114294
 Sum of Mulliken charges=   0.00000

 Dipole moment (field-independent basis, Debye):
    X=     0.3274    Y=     0.2604    Z=     0.2240  Tot=     0.4745
 Quadrupole moment (field-independent basis, Debye-Ang):
   XX=   -36.3546   YY=   -45.8360   ZZ=   -41.4969
   XY=     4.2461   XZ=     1.4192   YZ=     1.3054

  Exact polarizability:  78.229   0.634  56.063  -0.971   2.749  49.815
 Approx polarizability: 101.570  -0.985  74.333  -1.870   1.133  70.971

                     1                      2                      3
                     A                      A                      A
 Frequencies --    49.0684                94.5880               109.8346
 Red. masses --     3.4275                 1.1311                 1.1174
 Frc consts  --     0.0049                 0.0060                 0.0079
 IR Inten    --     0.3532                 0.4157                 0.2770

                     4                      5                      6
                     A                      A                      A
 Frequencies --   133.4820               168.9720               194.4255
 Red. masses --     5.0511                 2.3712                 1.1624
 Frc consts  --     0.0530                 0.0399                 0.0259
 IR Inten    --     7.6048                 2.8392               181.0199

                     7                      8                      9
                     A                      A                      A
 Frequencies --   279.9791               322.6990               334.7776
 Red. masses --     3.6572                 3.7240                 2.5508
 Frc consts  --     0.1689                 0.2285                 0.1684
 IR Inten    --     3.0374                 7.9250                 0.4088

                    10                     11                     12
                     A                      A                      A
 Frequencies --   437.0402               448.3867               523.6041
 Red. masses --     1.5355                 2.2423                 3.5943
 Frc consts  --     0.1728                 0.2656                 0.5806
 IR Inten    --    21.8036                35.4759                16.1704

                    13                     14                     15
                     A                      A                      A
 Frequencies --   632.9709               793.1260               836.6246
 Red. masses --     8.0784                 3.6133                 9.3401
 Frc consts  --     1.9070                 1.3392                 3.8518
 IR Inten    --    10.8014                42.8794                23.1745

                    16                     17                     18
                     A                      A                      A
 Frequencies --   906.8482               942.6068               979.4209
 Red. masses --     6.0840                 1.2301                 1.3696
 Frc consts  --     2.9479                 0.6439                 0.7741
 IR Inten    --    87.8969                 1.3762                 3.1605

                    19                     20                     21
                     A                      A                      A
 Frequencies --   995.9349              1046.0279              1106.7329
 Red. masses --     1.8066                 1.5365                 5.2988
 Frc consts  --     1.0558                 0.9905                 3.8240
 IR Inten    --    20.5920                 2.1228               145.0987

                    22                     23                     24
                     A                      A                      A
 Frequencies --  1203.6069              1283.3644              1306.2305
 Red. masses --     1.3949                 2.1419                 1.1738
 Frc consts  --     1.1906                 2.0785                 1.1800
 IR Inten    --    57.8066                25.7734                52.4301

                    25                     26                     27
                     A                      A                      A
 Frequencies --  1326.4223              1379.4735              1397.8732
 Red. masses --     1.8505                 1.1575                 1.3303
 Frc consts  --     1.9183                 1.2978                 1.5315
 IR Inten    --    12.0384                 9.4726                 5.2218

                    28                     29                     30
                     A                      A                      A
 Frequencies --  1409.8028              1467.6241              1469.4574
 Red. masses --     1.2294                 1.4901                 1.0724
 Frc consts  --     1.4396                 1.8910                 1.3643
 IR Inten    --     4.1810                 4.9398                 2.3152

                    31                     32                     33
                     A                      A                      A
 Frequencies --  1472.6022              1486.3674              1500.4646
 Red. masses --     1.0518                 1.0658                 1.1811
 Frc consts  --     1.3438                 1.3873                 1.5666
 IR Inten    --     4.3008                14.1393                 8.1173

                    34                     35                     36
                     A                      A                      A
 Frequencies --  2958.2044              2966.8262              2986.2463
 Red. masses --     1.0578                 1.0555                 1.0836
 Frc consts  --     5.4541                 5.4739                 5.6936
 IR Inten    --    22.6695                33.0464                53.0306

                    37                     38                     39
                     A                      A                      A
 Frequencies --  3030.7833              3034.8516              3085.4999
 Red. masses --     1.0789                 1.0776                 1.0989
 Frc consts  --     5.8392                 5.8477                 6.1637
 IR Inten    --    15.3237                45.1429                28.0343

                    40                     41                     42
                     A                      A                      A
 Frequencies --  3124.8926              3790.6671              3813.9820
 Red. masses --     1.0944                 1.0683                 1.0651
 Frc consts  --     6.2966                 9.0442                 9.1285
 IR Inten    --     6.9466                61.1167                42.7234

 - Thermochemistry -
 -------------------
 Temperature   298.150 Kelvin.  Pressure   1.00000 Atm.
 Atom  1 has atomic number  8 and mass  15.99491

 Molecular mass:   105.05517 amu.
 Principal axes and moments of inertia in atomic units:
                           1         2         3
     EIGENVALUES --   449.854951007.687791228.97505
           X            0.99963   0.02579  -0.00821
           Y           -0.02520   0.99760   0.06453
           Z            0.00986  -0.06430   0.99788
 This molecule is an asymmetric top.
 Rotational symmetry number  1.
 Warning -- assumption of classical behavior for rotation
           may cause significant error
 Rotational temperatures (Kelvin)      0.19254     0.08595     0.07048
 Rotational constants (GHZ):           4.01183     1.79097     1.46849
 Zero-point vibrational energy     339933.2 (Joules/Mol)
                                   81.24598 (Kcal/Mol)
 Warning -- explicit consideration of  12 degrees of freedom as
           vibrations may cause significant error
 Vibrational temperatures:     70.60   136.09   158.03   192.05   243.11
          (Kelvin)            279.73   402.83   464.29   481.67   628.80
                              645.13   753.35   910.70  1141.13  1203.71
                             1304.75  1356.20  1409.17  1432.93  1505.00
                             1592.34  1731.72  1846.47  1879.37  1908.42
                             1984.75  2011.23  2028.39  2111.58  2114.22
                             2118.74  2138.55  2158.83  4256.19  4268.60
                             4296.54  4360.62  4366.47  4439.34  4496.02
                             5453.92  5487.46

 Zero-point correction=                           0.129474 (Hartree/Particle)
 Thermal correction to Energy=                    0.139043
 Thermal correction to Enthalpy=                  0.139987
 Thermal correction to Gibbs Free Energy=         0.094282
 Sum of electronic and zero-point Energies=           -383.349604
 Sum of electronic and thermal Energies=              -383.340035
 Sum of electronic and thermal Enthalpies=            -383.339091
 Sum of electronic and thermal Free Energies=         -383.384796

                     E (Thermal)             CV                S
                      KCal/Mol        Cal/Mol-Kelvin    Cal/Mol-Kelvin
 Total                   87.251             32.285             96.195
 Electronic               0.000              0.000              1.377
 Translational            0.889              2.981             39.865
 Rotational               0.889              2.981             27.812
 Vibrational             85.473             26.323             27.140
 Vibration  1             0.595              1.978              4.855
 Vibration  2             0.603              1.953              3.563
 Vibration  3             0.606              1.941              3.272
 Vibration  4             0.613              1.920              2.895
 Vibration  5             0.625              1.881              2.447
 Vibration  6             0.635              1.848              2.185
 Vibration  7             0.680              1.711              1.534
 Vibration  8             0.708              1.630              1.296
 Vibration  9             0.716              1.606              1.237
 Vibration 10             0.797              1.389              0.836
 Vibration 11             0.807              1.364              0.801
 Vibration 12             0.879              1.198              0.602

 Normal termination of Gaussian 03 at Tue Jul 15 16:57:50 2014.
