 Gaussian 03, Revision D.01,
 Gaussian 03:  AM64L-G03RevD.01 13-Oct-2005

 -------------------------------------
 # freq nosymm b3lyp/cbsb7 iop(7/33=1)
 -------------------------------------

 -------------------
 Title Card Required
 -------------------
 Symbolic Z-matrix:
 Charge =  0 Multiplicity = 2

                          Input orientation:
 ---------------------------------------------------------------------
 Center     Atomic     Atomic              Coordinates (Angstroms)
 Number     Number      Type              X           Y           Z
 ---------------------------------------------------------------------
    1          8             0       -2.177302    2.476642    0.426679
    2          1             0       -2.526891    1.775250   -0.154658
    3          6             0       -0.829436    2.448860    0.296700
    4          1             0       -0.433034    2.671962   -0.690347
    5          6             0       -0.030934    2.701532    1.414012
    6          6             0       -0.586205    2.631684    2.799200
    7          1             0       -0.336604    3.536474    3.366345
    8          1             0       -1.668604    2.514826    2.788713
    9          1             0       -0.145207    1.789098    3.348234
   10          6             0        1.441671    2.888710    1.239573
   11          1             0        1.728986    2.940655    0.187741
   12          1             0        1.785019    3.804379    1.736636
   13          1             0        1.994460    2.058535    1.698255
   14          8             0       -0.517414    0.534282    0.015545
   15          8             0       -1.793077    0.022612   -0.319719
   16          1             0       -2.065185   -0.425907    0.493874
 ---------------------------------------------------------------------

 SCF Done:  E(UB+HF-LYP) =  -383.461075696     A.U. after   19 cycles

 Alpha  occ. eigenvalues --  -19.18175 -19.14764 -19.13856 -10.25241 -10.19885
 Alpha  occ. eigenvalues --  -10.17536 -10.17035  -1.11456  -1.05612  -0.84994
 Alpha  occ. eigenvalues --   -0.81753  -0.70752  -0.68825  -0.55867  -0.54014
 Alpha  occ. eigenvalues --   -0.51531  -0.47469  -0.46951  -0.44092  -0.42464
 Alpha  occ. eigenvalues --   -0.40805  -0.39917  -0.38823  -0.37730  -0.36627
 Alpha  occ. eigenvalues --   -0.32514  -0.28333  -0.26339  -0.20704
 Alpha virt. eigenvalues --    0.01853   0.03344   0.03964   0.07967   0.08422
 Alpha virt. eigenvalues --    0.08872   0.10719   0.11124   0.11271   0.13721
 Alpha virt. eigenvalues --    0.15593   0.18502   0.22559   0.25543   0.26571

  Beta  occ. eigenvalues --  -19.17906 -19.13863 -19.13591 -10.25382 -10.18968
  Beta  occ. eigenvalues --  -10.17590 -10.17087  -1.10326  -1.05558  -0.83094
  Beta  occ. eigenvalues --   -0.80224  -0.70589  -0.68580  -0.55191  -0.53676
  Beta  occ. eigenvalues --   -0.50916  -0.47094  -0.45909  -0.43026  -0.41684
  Beta  occ. eigenvalues --   -0.40452  -0.39459  -0.38438  -0.36836  -0.35700
  Beta  occ. eigenvalues --   -0.32120  -0.25662  -0.24554
  Beta virt. eigenvalues --   -0.09839   0.02530   0.04121   0.04939   0.08016
  Beta virt. eigenvalues --    0.08579   0.09511   0.10964   0.11286   0.11579
  Beta virt. eigenvalues --    0.13926   0.15615   0.19313   0.22740   0.25792

 Mulliken atomic charges:
              1
     1  O   -0.353635
     2  H    0.256536
     3  C    0.180118
     4  H    0.125494
     5  C   -0.123798
     6  C   -0.261367
     7  H    0.116853
     8  H    0.126582
     9  H    0.117977
    10  C   -0.249171
    11  H    0.112382
    12  H    0.118173
    13  H    0.125515
    14  O   -0.288066
    15  O   -0.280377
    16  H    0.276787
 Sum of Mulliken charges=   0.00000

 Dipole moment (field-independent basis, Debye):
    X=     0.0766    Y=     0.4796    Z=     1.4971  Tot=     1.5739
 Quadrupole moment (field-independent basis, Debye-Ang):
   XX=   -40.3958   YY=   -40.9869   ZZ=   -40.2162
   XY=     5.4102   XZ=    -0.1751   YZ=    -0.1333

  Exact polarizability:  68.930  15.021  74.898   9.990  16.027  67.250
 Approx polarizability:  95.857  16.806 116.491  14.525  26.363  92.852

 ******    1 imaginary frequencies (negative Signs) ******

                     1                      2                      3
                     A                      A                      A
 Frequencies --  -401.0907                74.8508                85.5726
 Red. masses --    12.2434                 3.9177                 1.1014
 Frc consts  --     1.1605                 0.0129                 0.0048
 IR Inten    --    21.7007                 4.8321                 0.3799

                     4                      5                      6
                     A                      A                      A
 Frequencies --   103.5217               121.6299               162.0169
 Red. masses --     2.1429                 1.9835                 2.0205
 Frc consts  --     0.0135                 0.0173                 0.0312
 IR Inten    --     1.3873                 5.9918                 3.2558

                     7                      8                      9
                     A                      A                      A
 Frequencies --   287.5410               309.1580               349.7550
 Red. masses --     3.8219                 5.1992                 2.5477
 Frc consts  --     0.1862                 0.2928                 0.1836
 IR Inten    --     5.6008                 1.5931                 7.3464

                    10                     11                     12
                     A                      A                      A
 Frequencies --   396.4780               412.8642               468.3120
 Red. masses --     1.2019                 2.5535                 3.4215
 Frc consts  --     0.1113                 0.2565                 0.4421
 IR Inten    --   169.6527                23.7430                12.7059

                    13                     14                     15
                     A                      A                      A
 Frequencies --   591.4918               618.0965               813.6663
 Red. masses --     4.8437                 1.1438                 3.5539
 Frc consts  --     0.9984                 0.2575                 1.3863
 IR Inten    --     5.2908                91.4338                 8.8253

                    16                     17                     18
                     A                      A                      A
 Frequencies --   910.8955               953.7427               967.6443
 Red. masses --     5.6843                 1.2951                 1.3570
 Frc consts  --     2.7789                 0.6941                 0.7486
 IR Inten    --   165.0017                 7.1984                 0.8328

                    19                     20                     21
                     A                      A                      A
 Frequencies --  1005.5477              1042.3252              1064.4662
 Red. masses --     1.3108                 1.4479                 1.5920
 Frc consts  --     0.7809                 0.9268                 1.0628
 IR Inten    --     3.8277                14.5164                 0.2412

                    22                     23                     24
                     A                      A                      A
 Frequencies --  1207.2119              1247.1245              1326.3065
 Red. masses --     4.8962                 1.9513                 1.1591
 Frc consts  --     4.2041                 1.7881                 1.2013
 IR Inten    --   140.3438                 9.7191                 9.2926

                    25                     26                     27
                     A                      A                      A
 Frequencies --  1364.1003              1364.9890              1404.2845
 Red. masses --     1.3749                 1.4029                 1.4625
 Frc consts  --     1.5073                 1.5401                 1.6992
 IR Inten    --   101.4103                30.8358                10.7257

                    28                     29                     30
                     A                      A                      A
 Frequencies --  1413.3314              1468.3564              1471.9044
 Red. masses --     1.2796                 1.0480                 1.0577
 Frc consts  --     1.5059                 1.3313                 1.3501
 IR Inten    --     1.9386                 1.6833                 6.0435

                    31                     32                     33
                     A                      A                      A
 Frequencies --  1487.9554              1489.2472              1543.2048
 Red. masses --     1.1922                 1.0438                 2.1436
 Frc consts  --     1.5551                 1.3640                 3.0077
 IR Inten    --     9.5835                13.5931                59.1792

                    34                     35                     36
                     A                      A                      A
 Frequencies --  2994.6111              2999.8335              3033.8894
 Red. masses --     1.0416                 1.0427                 1.0976
 Frc consts  --     5.5033                 5.5284                 5.9524
 IR Inten    --    10.4731                44.3166                 6.4677

                    37                     38                     39
                     A                      A                      A
 Frequencies --  3036.7926              3101.4254              3133.4809
 Red. masses --     1.0946                 1.0971                 1.0904
 Frc consts  --     5.9474                 6.2173                 6.3079
 IR Inten    --    34.7244                16.2262                24.3767

                    40                     41                     42
                     A                      A                      A
 Frequencies --  3133.9857              3599.1585              3734.4111
 Red. masses --     1.0949                 1.0638                 1.0688
 Frc consts  --     6.3359                 8.1191                 8.7823
 IR Inten    --    12.2343                62.6586                49.9197

 - Thermochemistry -
 -------------------
 Temperature   298.150 Kelvin.  Pressure   1.00000 Atm.
 Atom  1 has atomic number  8 and mass  15.99491

 Molecular mass:   105.05517 amu.
 Principal axes and moments of inertia in atomic units:
                           1         2         3
     EIGENVALUES --   473.912631072.075971231.35475
           X            0.56175   0.82728  -0.00694
           Y            0.62412  -0.42927  -0.65284
           Z            0.54306  -0.36240   0.75746
 This molecule is an asymmetric top.
 Rotational symmetry number  1.
 Warning -- assumption of classical behavior for rotation
           may cause significant error
 Rotational temperatures (Kelvin)      0.18276     0.08079     0.07034
 Rotational constants (GHZ):           3.80817     1.68341     1.46565
    1 imaginary frequencies ignored.
 Zero-point vibrational energy     336720.0 (Joules/Mol)
                                   80.47800 (Kcal/Mol)
 Warning -- explicit consideration of  13 degrees of freedom as
           vibrations may cause significant error
 Vibrational temperatures:    107.69   123.12   148.94   175.00   233.11
          (Kelvin)            413.71   444.81   503.22   570.44   594.02
                              673.80   851.02   889.30  1170.68  1310.57
                             1372.22  1392.22  1446.76  1499.67  1531.53
                             1736.91  1794.33  1908.26  1962.63  1963.91
                             2020.45  2033.47  2112.63  2117.74  2140.83
                             2142.69  2220.32  4308.57  4316.09  4365.08
                             4369.26  4462.25  4508.37  4509.10  5178.38
                             5372.98

 Zero-point correction=                           0.128250 (Hartree/Particle)
 Thermal correction to Energy=                    0.137459
 Thermal correction to Enthalpy=                  0.138403
 Thermal correction to Gibbs Free Energy=         0.093500
 Sum of electronic and zero-point Energies=           -383.332826
 Sum of electronic and thermal Energies=              -383.323617
 Sum of electronic and thermal Enthalpies=            -383.322673
 Sum of electronic and thermal Free Energies=         -383.367576

                     E (Thermal)             CV                S
                      KCal/Mol        Cal/Mol-Kelvin    Cal/Mol-Kelvin
 Total                   86.257             31.184             94.507
 Electronic               0.000              0.000              1.377
 Translational            0.889              2.981             39.865
 Rotational               0.889              2.981             27.928
 Vibrational             84.479             25.223             25.337
 Vibration  1             0.599              1.966              4.022
 Vibration  2             0.601              1.959              3.759
 Vibration  3             0.605              1.946              3.387
 Vibration  4             0.609              1.931              3.074
 Vibration  5             0.622              1.889              2.526
 Vibration  6             0.685              1.697              1.488
 Vibration  7             0.699              1.656              1.367
 Vibration  8             0.727              1.576              1.167
 Vibration  9             0.763              1.478              0.976
 Vibration 10             0.777              1.442              0.917
 Vibration 11             0.826              1.320              0.742
 Vibration 12             0.949              1.050              0.465
 Vibration 13             0.978              0.994              0.420

 Optimization completed.
    -- Stationary point found.
 Normal termination of Gaussian 03 at Tue Jul  8 23:39:08 2014.
