 Gaussian 03, Revision D.01,
 Gaussian 03:  AM64L-G03RevD.01 13-Oct-2005

 -------------------------------------
 # freq nosymm b3lyp/cbsb7 iop(7/33=1)
 -------------------------------------

 -------------------
 Title Card Required
 -------------------
 Symbolic Z-matrix:
 Charge =  0 Multiplicity = 2

                          Input orientation:
 ---------------------------------------------------------------------
 Center     Atomic     Atomic              Coordinates (Angstroms)
 Number     Number      Type              X           Y           Z
 ---------------------------------------------------------------------
    1          6             0       -0.792710    0.455354    0.154405
    2          1             0       -1.775921    0.044572   -0.093151
    3          1             0       -0.041598   -0.333368    0.080415
    4          6             0       -0.788430    1.140684    1.516397
    5          1             0        0.221213    1.519667    1.709812
    6          6             0       -1.148878    0.099721    2.587311
    7          1             0       -0.488281   -0.770072    2.542355
    8          1             0       -1.061465    0.532497    3.586117
    9          1             0       -2.177228   -0.255742    2.465758
   10          6             0       -1.740530    2.348802    1.575618
   11          1             0       -2.729270    2.055354    1.186133
   12          1             0       -1.878753    2.639583    2.619661
   13          8             0       -1.245204    3.504081    0.920880
   14          1             0       -1.062672    3.271147    0.003894
   15          8             0       -0.476517    1.440161   -0.883975
   16          8             0       -0.391810    0.889626   -2.077277
 ---------------------------------------------------------------------

 SCF Done:  E(UB+HF-LYP) =  -383.484408436     A.U. after   19 cycles

 Alpha  occ. eigenvalues --  -19.24999 -19.19779 -19.10902 -10.24657 -10.22322
 Alpha  occ. eigenvalues --  -10.19904 -10.18429  -1.20639  -1.02039  -0.89906
 Alpha  occ. eigenvalues --   -0.81129  -0.69454  -0.68834  -0.60529  -0.54772
 Alpha  occ. eigenvalues --   -0.53441  -0.50950  -0.49314  -0.45264  -0.44942
 Alpha  occ. eigenvalues --   -0.43125  -0.41479  -0.40138  -0.37883  -0.36202
 Alpha  occ. eigenvalues --   -0.32954  -0.29497  -0.29314  -0.27355
 Alpha virt. eigenvalues --    0.02715   0.04357   0.05782   0.06817   0.09754
 Alpha virt. eigenvalues --    0.09779   0.10734   0.10982   0.12460   0.12772
 Alpha virt. eigenvalues --    0.14351   0.18716   0.19789   0.20296   0.23629

  Beta  occ. eigenvalues --  -19.24043 -19.17805 -19.10899 -10.24697 -10.22322
  Beta  occ. eigenvalues --  -10.19906 -10.18431  -1.17968  -1.02022  -0.87346
  Beta  occ. eigenvalues --   -0.80210  -0.69077  -0.68308  -0.60420  -0.53630
  Beta  occ. eigenvalues --   -0.52031  -0.48935  -0.48236  -0.44591  -0.43875
  Beta  occ. eigenvalues --   -0.42936  -0.40227  -0.38300  -0.37741  -0.35689
  Beta  occ. eigenvalues --   -0.32765  -0.27850  -0.27120
  Beta virt. eigenvalues --   -0.12334   0.02744   0.04764   0.05872   0.06833
  Beta virt. eigenvalues --    0.09806   0.10160   0.10975   0.11078   0.12857
  Beta virt. eigenvalues --    0.13670   0.14472   0.18774   0.19823   0.20453

 Mulliken atomic charges:
              1
     1  C    0.041260
     2  H    0.130592
     3  H    0.137274
     4  C   -0.271246
     5  H    0.135668
     6  C   -0.291709
     7  H    0.114297
     8  H    0.123154
     9  H    0.110503
    10  C    0.042885
    11  H    0.088136
    12  H    0.107082
    13  O   -0.394463
    14  H    0.240255
    15  O   -0.175526
    16  O   -0.138160
 Sum of Mulliken charges=   0.00000

 Dipole moment (field-independent basis, Debye):
    X=    -0.5564    Y=    -2.4939    Z=     1.9802  Tot=     3.2327
 Quadrupole moment (field-independent basis, Debye-Ang):
   XX=   -40.9914   YY=   -54.3052   ZZ=   -44.6466
   XY=     1.7364   XZ=    -0.8451   YZ=    -1.4359

  Exact polarizability:  48.835  -1.201  56.686  -4.421  -0.169  70.724
 Approx polarizability:  69.399   0.965  76.467  -3.944   2.950  93.058

                     1                      2                      3
                     A                      A                      A
 Frequencies --    63.7449               111.0371               154.5739
 Red. masses --     5.8787                 2.9629                 4.2551
 Frc consts  --     0.0141                 0.0215                 0.0599
 IR Inten    --     1.9015                 1.4644                 3.3135

                     4                      5                      6
                     A                      A                      A
 Frequencies --   181.2925               205.8343               286.8663
 Red. masses --     3.2592                 1.0918                 2.5883
 Frc consts  --     0.0631                 0.0273                 0.1255
 IR Inten    --     1.9128                 0.4104                 0.2403

                     7                      8                      9
                     A                      A                      A
 Frequencies --   346.4204               388.4090               442.7530
 Red. masses --     4.8444                 2.3048                 1.2200
 Frc consts  --     0.3425                 0.2049                 0.1409
 IR Inten    --     3.5323                 2.9121               110.6552

                    10                     11                     12
                     A                      A                      A
 Frequencies --   495.7667               518.8420               850.7448
 Red. masses --     3.4668                 2.8855                 2.2446
 Frc consts  --     0.5020                 0.4577                 0.9572
 IR Inten    --     5.4610                22.8530                 6.9052

                    13                     14                     15
                     A                      A                      A
 Frequencies --   897.7428               928.1748               958.8419
 Red. masses --     1.3285                 2.2197                 1.6398
 Frc consts  --     0.6308                 1.1267                 0.8883
 IR Inten    --     3.4252                 4.4090                 9.6286

                    16                     17                     18
                     A                      A                      A
 Frequencies --   960.1697              1065.6735              1097.7876
 Red. masses --     2.4510                 5.3356                 2.7608
 Frc consts  --     1.3313                 3.5701                 1.9603
 IR Inten    --    10.3678                39.2168                78.5853

                    19                     20                     21
                     A                      A                      A
 Frequencies --  1141.3988              1174.2710              1190.7862
 Red. masses --     1.8332                 2.3316                 5.2956
 Frc consts  --     1.4071                 1.8943                 4.4242
 IR Inten    --     2.8413                 7.3246                13.4910

                    22                     23                     24
                     A                      A                      A
 Frequencies --  1215.4366              1278.3666              1313.2370
 Red. masses --     1.1358                 1.1659                 1.3303
 Frc consts  --     0.9886                 1.1226                 1.3518
 IR Inten    --     7.2433                17.0800                 0.7533

                    25                     26                     27
                     A                      A                      A
 Frequencies --  1349.2411              1397.8732              1404.7070
 Red. masses --     1.2889                 1.2847                 1.4341
 Frc consts  --     1.3825                 1.4791                 1.6673
 IR Inten    --     5.1759                 1.5256                 4.7128

                    28                     29                     30
                     A                      A                      A
 Frequencies --  1415.1571              1448.0488              1489.7739
 Red. masses --     1.2226                 1.2121                 1.0831
 Frc consts  --     1.4426                 1.4975                 1.4164
 IR Inten    --     5.6687                54.0641                 5.5211

                    31                     32                     33
                     A                      A                      A
 Frequencies --  1501.2515              1503.1251              1513.7834
 Red. masses --     1.0444                 1.0626                 1.0824
 Frc consts  --     1.3868                 1.4145                 1.4614
 IR Inten    --    10.0222                 8.7322                 2.2894

                    34                     35                     36
                     A                      A                      A
 Frequencies --  2952.3479              3025.2065              3034.9197
 Red. masses --     1.0723                 1.0388                 1.0786
 Frc consts  --     5.5071                 5.6012                 5.8534
 IR Inten    --    58.5193                15.8159                 5.7269

                    37                     38                     39
                     A                      A                      A
 Frequencies --  3046.5670              3073.9121              3085.8855
 Red. masses --     1.0603                 1.0911                 1.1008
 Frc consts  --     5.7980                 6.0745                 6.1761
 IR Inten    --    28.2234                30.1895                23.6410

                    40                     41                     42
                     A                      A                      A
 Frequencies --  3102.3269              3106.8807              3811.8038
 Red. masses --     1.1014                 1.1083                 1.0658
 Frc consts  --     6.2454                 6.3033                 9.1239
 IR Inten    --    30.3852                28.8040                74.4146

 - Thermochemistry -
 -------------------
 Temperature   298.150 Kelvin.  Pressure   1.00000 Atm.
 Atom  1 has atomic number  6 and mass  12.00000

 Molecular mass:   105.05517 amu.
 Principal axes and moments of inertia in atomic units:
                           1         2         3
     EIGENVALUES --   534.89311 962.784581416.81283
           X           -0.23234  -0.14295   0.96207
           Y            0.11073   0.97882   0.17218
           Z            0.96631  -0.14653   0.21159
 This molecule is an asymmetric top.
 Rotational symmetry number  1.
 Warning -- assumption of classical behavior for rotation
           may cause significant error
 Rotational temperatures (Kelvin)      0.16193     0.08996     0.06113
 Rotational constants (GHZ):           3.37402     1.87450     1.27380
 Zero-point vibrational energy     350093.0 (Joules/Mol)
                                   83.67424 (Kcal/Mol)
 Warning -- explicit consideration of  11 degrees of freedom as
           vibrations may cause significant error
 Vibrational temperatures:     91.71   159.76   222.40   260.84   296.15
          (Kelvin)            412.74   498.42   558.83   637.02   713.30
                              746.50  1224.03  1291.65  1335.43  1379.56
                             1381.47  1533.26  1579.47  1642.22  1689.51
                             1713.27  1748.74  1839.28  1889.45  1941.25
                             2011.23  2021.06  2036.09  2083.42  2143.45
                             2159.96  2162.66  2177.99  4247.76  4352.59
                             4366.57  4383.33  4422.67  4439.90  4463.55
                             4470.10  5484.33

 Zero-point correction=                           0.133343 (Hartree/Particle)
 Thermal correction to Energy=                    0.141765
 Thermal correction to Enthalpy=                  0.142709
 Thermal correction to Gibbs Free Energy=         0.099536
 Sum of electronic and zero-point Energies=           -383.351065
 Sum of electronic and thermal Energies=              -383.342644
 Sum of electronic and thermal Enthalpies=            -383.341700
 Sum of electronic and thermal Free Energies=         -383.384873

                     E (Thermal)             CV                S
                      KCal/Mol        Cal/Mol-Kelvin    Cal/Mol-Kelvin
 Total                   88.959             29.066             90.865
 Electronic               0.000              0.000              1.377
 Translational            0.889              2.981             39.865
 Rotational               0.889              2.981             28.080
 Vibrational             87.181             23.104             21.542
 Vibration  1             0.597              1.972              4.338
 Vibration  2             0.607              1.940              3.251
 Vibration  3             0.620              1.898              2.615
 Vibration  4             0.630              1.865              2.315
 Vibration  5             0.640              1.832              2.080
 Vibration  6             0.684              1.698              1.492
 Vibration  7             0.724              1.583              1.182
 Vibration  8             0.757              1.495              1.006
 Vibration  9             0.802              1.377              0.818
 Vibration 10             0.851              1.259              0.669
 Vibration 11             0.874              1.208              0.613

 Normal termination of Gaussian 03 at Tue Jun 18 10:48:10 2013.
