 Gaussian 03, Revision D.01,
 Gaussian 03:  AM64L-G03RevD.01 13-Oct-2005

 -------------------------------------
 # freq nosymm b3lyp/cbsb7 iop(7/33=1)
 -------------------------------------

 -------------------
 Title Card Required
 -------------------
 Symbolic Z-matrix:
 Charge =  0 Multiplicity = 1

                          Input orientation:
 ---------------------------------------------------------------------
 Center     Atomic     Atomic              Coordinates (Angstroms)
 Number     Number      Type              X           Y           Z
 ---------------------------------------------------------------------
    1          8             0       -2.289642   -0.216893    0.067157
    2          1             0       -2.327412    0.666921   -0.320721
    3          8             0       -1.013384   -0.672451   -0.360034
    4          6             0       -0.039041    0.031824    0.368180
    5          1             0       -0.313366    0.016458    1.429125
    6          8             0       -0.017041    1.375582    0.003758
    7          1             0        0.359148    1.431588   -0.880560
    8          6             0        1.257702   -0.705672    0.109624
    9          1             0        1.180626   -1.789446    0.117168
   10          6             0        2.418148   -0.091582   -0.094775
   11          1             0        3.329149   -0.655758   -0.265024
   12          1             0        2.497531    0.991669   -0.077312
 ---------------------------------------------------------------------

 SCF Done:  E(RB+HF-LYP) =  -343.576191772     A.U. after   13 cycles

 Alpha  occ. eigenvalues --  -19.18130 -19.17063 -19.14292 -10.28288 -10.19293
 Alpha  occ. eigenvalues --  -10.18577  -1.14942  -1.05636  -0.91637  -0.79326
 Alpha  occ. eigenvalues --   -0.68322  -0.60055  -0.56398  -0.51640  -0.50997
 Alpha  occ. eigenvalues --   -0.45701  -0.44479  -0.42615  -0.40300  -0.35151
 Alpha  occ. eigenvalues --   -0.33715  -0.30288  -0.29367  -0.28347
 Alpha virt. eigenvalues --   -0.02170   0.02550   0.04394   0.06385   0.07370
 Alpha virt. eigenvalues --    0.09306   0.10885   0.13197   0.18124   0.23108
 Alpha virt. eigenvalues --    0.24763   0.27734   0.34761   0.37342   0.38269

 Mulliken atomic charges:
              1
     1  O   -0.247305
     2  H    0.259653
     3  O   -0.240809
     4  C    0.284940
     5  H    0.130457
     6  O   -0.382918
     7  H    0.228291
     8  C   -0.199281
     9  H    0.124483
    10  C   -0.190004
    11  H    0.120646
    12  H    0.111848
 Sum of Mulliken charges=   0.00000

 Dipole moment (field-independent basis, Debye):
    X=     1.8299    Y=     1.0574    Z=    -0.7816  Tot=     2.2533
 Quadrupole moment (field-independent basis, Debye-Ang):
   XX=   -34.5987   YY=   -35.8806   ZZ=   -35.2125
   XY=    -3.8660   XZ=    -0.0954   YZ=    -3.1807

  Exact polarizability:  64.649   1.467  42.316  -3.477  -2.276  31.515
 Approx polarizability:  86.455   6.660  61.976  -7.199  -2.929  45.543

                     1                      2                      3
                     A                      A                      A
 Frequencies --    72.6105               118.3183               215.2695
 Red. masses --     4.2229                 2.7795                 1.3131
 Frc consts  --     0.0131                 0.0229                 0.0359
 IR Inten    --    24.0982                 7.5816                53.5282

                     4                      5                      6
                     A                      A                      A
 Frequencies --   267.7877               330.9114               405.8252
 Red. masses --     2.9418                 3.1462                 1.1513
 Frc consts  --     0.1243                 0.2030                 0.1117
 IR Inten    --    11.4102                15.2180               118.3892

                     7                      8                      9
                     A                      A                      A
 Frequencies --   438.6535               549.7292               618.2402
 Red. masses --     3.6906                 2.2130                 3.1673
 Frc consts  --     0.4184                 0.3940                 0.7133
 IR Inten    --    27.4817                 4.7130                27.9361

                    10                     11                     12
                     A                      A                      A
 Frequencies --   711.9465               936.1931               979.5189
 Red. masses --     2.2557                 2.7581                 1.5348
 Frc consts  --     0.6736                 1.4242                 0.8676
 IR Inten    --    16.7288                33.2353                52.2238

                    13                     14                     15
                     A                      A                      A
 Frequencies --   992.9165              1020.0869              1041.2208
 Red. masses --     3.7637                 2.1098                 1.1139
 Frc consts  --     2.1862                 1.2935                 0.7115
 IR Inten    --    19.8175                29.2612                30.0996

                    16                     17                     18
                     A                      A                      A
 Frequencies --  1076.1739              1161.4528              1277.2642
 Red. masses --     4.3978                 2.2418                 1.6168
 Frc consts  --     3.0009                 1.7817                 1.5540
 IR Inten    --    64.6339               120.1772                 3.7721

                    19                     20                     21
                     A                      A                      A
 Frequencies --  1307.7484              1349.0548              1419.1732
 Red. masses --     1.2700                 1.2841                 1.1303
 Frc consts  --     1.2797                 1.3770                 1.3412
 IR Inten    --     2.2007                13.0375                69.2792

                    22                     23                     24
                     A                      A                      A
 Frequencies --  1437.6787              1447.6946              1702.9762
 Red. masses --     1.1579                 1.2805                 4.7218
 Frc consts  --     1.4100                 1.5812                 8.0681
 IR Inten    --    32.6098                22.6840                 0.8515

                    25                     26                     27
                     A                      A                      A
 Frequencies --  3039.5313              3124.5112              3158.9250
 Red. masses --     1.0832                 1.0585                 1.0934
 Frc consts  --     5.8962                 6.0883                 6.4282
 IR Inten    --    23.3706                 5.1119                 2.3821

                    28                     29                     30
                     A                      A                      A
 Frequencies --  3211.6808              3772.6536              3823.9606
 Red. masses --     1.1157                 1.0681                 1.0651
 Frc consts  --     6.7804                 8.9565                 9.1765
 IR Inten    --     7.6376                25.2297                22.8278

 - Thermochemistry -
 -------------------
 Temperature   298.150 Kelvin.  Pressure   1.00000 Atm.
 Atom  1 has atomic number  8 and mass  15.99491

 Molecular mass:    90.03169 amu.
 Principal axes and moments of inertia in atomic units:
                           1         2         3
     EIGENVALUES --   208.98147 788.48594 947.43763
           X            0.99989  -0.01392  -0.00518
           Y            0.01374   0.99937  -0.03260
           Z            0.00563   0.03252   0.99946
 This molecule is an asymmetric top.
 Rotational symmetry number  1.
 Rotational temperatures (Kelvin)      0.41446     0.10985     0.09142
 Rotational constants (GHZ):           8.63589     2.28887     1.90487
 Zero-point vibrational energy     245292.5 (Joules/Mol)
                                   58.62632 (Kcal/Mol)
 Warning -- explicit consideration of   9 degrees of freedom as
           vibrations may cause significant error
 Vibrational temperatures:    104.47   170.23   309.72   385.29   476.11
          (Kelvin)            583.89   631.12   790.94   889.51  1024.33
                             1346.97  1409.31  1428.58  1467.68  1498.08
                             1548.37  1671.07  1837.70  1881.56  1940.99
                             2041.87  2068.50  2082.91  2450.20  4373.20
                             4495.47  4544.98  4620.89  5428.00  5501.82

 Zero-point correction=                           0.093427 (Hartree/Particle)
 Thermal correction to Energy=                    0.100446
 Thermal correction to Enthalpy=                  0.101391
 Thermal correction to Gibbs Free Energy=         0.062531
 Sum of electronic and zero-point Energies=           -343.482765
 Sum of electronic and thermal Energies=              -343.475745
 Sum of electronic and thermal Enthalpies=            -343.474801
 Sum of electronic and thermal Free Energies=         -343.513661

                     E (Thermal)             CV                S
                      KCal/Mol        Cal/Mol-Kelvin    Cal/Mol-Kelvin
 Total                   63.031             24.018             81.787
 Electronic               0.000              0.000              0.000
 Translational            0.889              2.981             39.405
 Rotational               0.889              2.981             26.548
 Vibrational             61.254             18.057             15.834
 Vibration  1             0.599              1.967              4.081
 Vibration  2             0.608              1.934              3.128
 Vibration  3             0.645              1.818              1.999
 Vibration  4             0.673              1.732              1.610
 Vibration  5             0.713              1.614              1.256
 Vibration  6             0.771              1.458              0.941
 Vibration  7             0.799              1.386              0.831
 Vibration  8             0.905              1.140              0.545
 Vibration  9             0.978              0.993              0.419

 Normal termination of Gaussian 03 at Tue Jul 15 22:57:54 2014.
