 Gaussian 03, Revision D.01,
 Gaussian 03:  AM64L-G03RevD.01 13-Oct-2005

 -------------------------------------
 # freq nosymm b3lyp/cbsb7 iop(7/33=1)
 -------------------------------------

 -------------------
 Title Card Required
 -------------------
 Symbolic Z-matrix:
 Charge =  0 Multiplicity = 2

                          Input orientation:
 ---------------------------------------------------------------------
 Center     Atomic     Atomic              Coordinates (Angstroms)
 Number     Number      Type              X           Y           Z
 ---------------------------------------------------------------------
    1          8             0        0.154864    0.399270    0.220604
    2          6             0       -0.807392    1.336284    0.140090
    3          6             0       -2.192462    0.657587   -0.105748
    4          1             0       -2.435152    0.055218    0.771697
    5          1             0       -2.969035    1.412332   -0.246373
    6          1             0       -2.148598   -0.000576   -0.974698
    7          6             0       -0.515321    2.062584   -1.240796
    8          1             0       -0.372685    1.348531   -2.073222
    9          6             0       -0.833685    2.329295    1.303610
   10          1             0       -1.559957    3.128356    1.143058
   11          1             0       -1.087769    1.797063    2.223042
   12          1             0        0.152097    2.779840    1.427351
   13          8             0       -0.455693    3.247227   -1.359113
 ---------------------------------------------------------------------

 SCF Done:  E(UB+HF-LYP) =  -307.094802097     A.U. after   24 cycles

 Alpha  occ. eigenvalues --  -19.16219 -19.15025 -10.29252 -10.25558 -10.19546
 Alpha  occ. eigenvalues --  -10.16803  -1.09880  -1.03959  -0.78849  -0.71489
 Alpha  occ. eigenvalues --   -0.66616  -0.56410  -0.50957  -0.49121  -0.47417
 Alpha  occ. eigenvalues --   -0.45508  -0.42842  -0.40947  -0.40325  -0.39640
 Alpha  occ. eigenvalues --   -0.38326  -0.35380  -0.28952  -0.27100
 Alpha virt. eigenvalues --   -0.05285   0.03984   0.06542   0.08393   0.09270
 Alpha virt. eigenvalues --    0.09971   0.12954   0.13999   0.15612   0.18758
 Alpha virt. eigenvalues --    0.19826   0.22723   0.24839   0.28783   0.30177

  Beta  occ. eigenvalues --  -19.15971 -19.13019 -10.29063 -10.25574 -10.19367
  Beta  occ. eigenvalues --  -10.16812  -1.09375  -1.00015  -0.77575  -0.71325
  Beta  occ. eigenvalues --   -0.65574  -0.55763  -0.49543  -0.48640  -0.46407
  Beta  occ. eigenvalues --   -0.44684  -0.42578  -0.40653  -0.39299  -0.39134
  Beta  occ. eigenvalues --   -0.37492  -0.29927  -0.26344
  Beta virt. eigenvalues --   -0.15204  -0.04664   0.04058   0.06733   0.08520
  Beta virt. eigenvalues --    0.09427   0.10081   0.13006   0.14069   0.15841
  Beta virt. eigenvalues --    0.19118   0.20343   0.22965   0.25181   0.29047

 Mulliken atomic charges:
              1
     1  O   -0.271060
     2  C   -0.062753
     3  C   -0.269972
     4  H    0.135966
     5  H    0.123409
     6  H    0.123325
     7  C    0.222018
     8  H    0.112790
     9  C   -0.222167
    10  H    0.108160
    11  H    0.111882
    12  H    0.120161
    13  O   -0.231757
 Sum of Mulliken charges=   0.00000

 Dipole moment (field-independent basis, Debye):
    X=    -1.9417    Y=    -0.5814    Z=    -0.1287  Tot=     2.0310
 Quadrupole moment (field-independent basis, Debye-Ang):
   XX=   -33.2677   YY=   -43.5789   ZZ=   -35.0512
   XY=    -0.5669   XZ=    -0.4914   YZ=     2.8807

  Exact polarizability:  48.237   2.834  61.455  -1.725  -6.617  56.957
 Approx polarizability:  67.904  -5.765 103.743   1.825 -17.424  75.870

                     1                      2                      3
                     A                      A                      A
 Frequencies --    71.4840               173.2217               210.3572
 Red. masses --     3.9082                 1.0665                 1.1729
 Frc consts  --     0.0118                 0.0189                 0.0306
 IR Inten    --     7.0089                 0.6766                 7.5743

                     4                      5                      6
                     A                      A                      A
 Frequencies --   247.3759               278.2782               330.5528
 Red. masses --     3.6366                 3.0910                 2.3142
 Frc consts  --     0.1311                 0.1410                 0.1490
 IR Inten    --     2.1675                30.3872                 2.2449

                     7                      8                      9
                     A                      A                      A
 Frequencies --   392.4044               458.1070               534.4099
 Red. masses --     2.3481                 3.9555                 4.5656
 Frc consts  --     0.2130                 0.4891                 0.7682
 IR Inten    --     3.7652                21.1666                26.2533

                    10                     11                     12
                     A                      A                      A
 Frequencies --   703.2179               773.4403               897.5462
 Red. masses --     4.3106                 4.2310                 1.5665
 Frc consts  --     1.2560                 1.4912                 0.7435
 IR Inten    --   144.4062                34.8700                12.3150

                    13                     14                     15
                     A                      A                      A
 Frequencies --   929.7878               981.5594              1015.8418
 Red. masses --     1.5309                 1.8091                 1.5900
 Frc consts  --     0.7798                 1.0269                 0.9667
 IR Inten    --     0.7982                 2.8553                 0.2873

                    16                     17                     18
                     A                      A                      A
 Frequencies --  1072.7985              1134.5215              1265.0194
 Red. masses --     1.6667                 2.2224                 3.4655
 Frc consts  --     1.1301                 1.6854                 3.2675
 IR Inten    --    17.1266                 5.9650                13.2331

                    19                     20                     21
                     A                      A                      A
 Frequencies --  1340.6487              1377.3667              1412.0864
 Red. masses --     1.1922                 1.2383                 1.2503
 Frc consts  --     1.2625                 1.3841                 1.4689
 IR Inten    --    13.2096                 6.5509                13.5949

                    22                     23                     24
                     A                      A                      A
 Frequencies --  1470.1700              1480.5854              1489.5833
 Red. masses --     1.0498                 1.0467                 1.0511
 Frc consts  --     1.3369                 1.3519                 1.3742
 IR Inten    --     2.3973                 3.8263                 5.9424

                    25                     26                     27
                     A                      A                      A
 Frequencies --  1498.4129              1830.6354              2938.3773
 Red. masses --     1.0502                10.5825                 1.0887
 Frc consts  --     1.3893                20.8950                 5.5381
 IR Inten    --    22.3708               273.1220                81.9659

                    28                     29                     30
                     A                      A                      A
 Frequencies --  3037.7039              3044.9508              3113.7143
 Red. masses --     1.0316                 1.0346                 1.1031
 Frc consts  --     5.6088                 5.6518                 6.3013
 IR Inten    --    14.5506                10.0109                 2.6628

                    31                     32                     33
                     A                      A                      A
 Frequencies --  3119.2793              3123.4433              3125.6830
 Red. masses --     1.1032                 1.1029                 1.1042
 Frc consts  --     6.3244                 6.3393                 6.3560
 IR Inten    --    16.0584                14.7358                18.1192

 - Thermochemistry -
 -------------------
 Temperature   298.150 Kelvin.  Pressure   1.00000 Atm.
 Atom  1 has atomic number  8 and mass  15.99491

 Molecular mass:    87.04460 amu.
 Principal axes and moments of inertia in atomic units:
                           1         2         3
     EIGENVALUES --   383.51248 604.76530 643.03244
           X            0.20276   0.18997   0.96062
           Y            0.77375   0.57017  -0.27608
           Z           -0.60016   0.79926  -0.03138
 This molecule is an asymmetric top.
 Rotational symmetry number  1.
 Rotational temperatures (Kelvin)      0.22584     0.14322     0.13470
 Rotational constants (GHZ):           4.70582     2.98420     2.80661
 Zero-point vibrational energy     268397.5 (Joules/Mol)
                                   64.14855 (Kcal/Mol)
 Warning -- explicit consideration of   9 degrees of freedom as
           vibrations may cause significant error
 Vibrational temperatures:    102.85   249.23   302.66   355.92   400.38
          (Kelvin)            475.59   564.58   659.11   768.90  1011.77
                             1112.81  1291.37  1337.76  1412.24  1461.57
                             1543.52  1632.32  1820.08  1928.89  1981.72
                             2031.67  2115.24  2130.23  2143.18  2155.88
                             2633.87  4227.66  4370.57  4381.00  4479.93
                             4487.94  4493.93  4497.16

 Zero-point correction=                           0.102227 (Hartree/Particle)
 Thermal correction to Energy=                    0.109578
 Thermal correction to Enthalpy=                  0.110522
 Thermal correction to Gibbs Free Energy=         0.070667
 Sum of electronic and zero-point Energies=           -306.992575
 Sum of electronic and thermal Energies=              -306.985224
 Sum of electronic and thermal Enthalpies=            -306.984280
 Sum of electronic and thermal Free Energies=         -307.024135

                     E (Thermal)             CV                S
                      KCal/Mol        Cal/Mol-Kelvin    Cal/Mol-Kelvin
 Total                   68.761             25.376             83.883
 Electronic               0.000              0.000              1.377
 Translational            0.889              2.981             39.304
 Rotational               0.889              2.981             26.503
 Vibrational             66.984             19.414             16.698
 Vibration  1             0.598              1.968              4.112
 Vibration  2             0.627              1.875              2.400
 Vibration  3             0.643              1.825              2.041
 Vibration  4             0.661              1.767              1.749
 Vibration  5             0.679              1.714              1.544
 Vibration  6             0.713              1.614              1.257
 Vibration  7             0.760              1.486              0.991
 Vibration  8             0.816              1.343              0.772
 Vibration  9             0.889              1.174              0.577

 Optimization completed.
    -- Stationary point found.
 Normal termination of Gaussian 03 at Thu Jul 24 04:18:30 2014.
