 Gaussian 03, Revision D.01,
 Gaussian 03:  AM64L-G03RevD.01 13-Oct-2005

 ----------------------------------------------------------
 # opt=(ts,noeigentest,addred,calcfc) b3lyp/6-31g(d) nosymm
 ----------------------------------------------------------

 -------------
 71bEpoxyFroma
 -------------
 Symbolic Z-matrix:
 Charge =  0 Multiplicity = 2

 SCF Done:  E(UB+HF-LYP) =  -383.338638809     A.U. after   22 cycles

  Exact polarizability:  70.852  20.911  72.861   2.351   5.979  51.359
 Approx polarizability: 124.321  50.091 113.775   6.288   8.335  71.572

 SCF Done:  E(UB+HF-LYP) =  -383.338758766     A.U. after   20 cycles
 SCF Done:  E(UB+HF-LYP) =  -383.338759050     A.U. after   14 cycles
 Optimization completed.
    -- Stationary point found.
 SCF Done:  E(UB+HF-LYP) =  -383.338427491     A.U. after   17 cycles
 SCF Done:  E(UB+HF-LYP) =  -383.338463752     A.U. after   17 cycles
 SCF Done:  E(UB+HF-LYP) =  -383.338465092     A.U. after   14 cycles
 Optimization completed.
 SCF Done:  E(UB+HF-LYP) =  -383.337562943     A.U. after   17 cycles
 SCF Done:  E(UB+HF-LYP) =  -383.337592965     A.U. after   17 cycles
 SCF Done:  E(UB+HF-LYP) =  -383.337593055     A.U. after   12 cycles
 SCF Done:  E(UB+HF-LYP) =  -383.336106231     A.U. after   17 cycles
 SCF Done:  E(UB+HF-LYP) =  -383.337830419     A.U. after   17 cycles
 SCF Done:  E(UB+HF-LYP) =  -383.337835815     A.U. after   13 cycles
 SCF Done:  E(UB+HF-LYP) =  -383.337837029     A.U. after   14 cycles
 SCF Done:  E(UB+HF-LYP) =  -383.337837099     A.U. after   10 cycles
 SCF Done:  E(UB+HF-LYP) =  -383.338443117     A.U. after   18 cycles
 SCF Done:  E(UB+HF-LYP) =  -383.338518568     A.U. after   17 cycles
 SCF Done:  E(UB+HF-LYP) =  -383.338521225     A.U. after   15 cycles
    -- Stationary point found.
 SCF Done:  E(UB+HF-LYP) =  -383.338700421     A.U. after   17 cycles
 SCF Done:  E(UB+HF-LYP) =  -383.338751754     A.U. after   16 cycles
 SCF Done:  E(UB+HF-LYP) =  -383.338753125     A.U. after   14 cycles
 Optimization completed.
    -- Stationary point found.

                          Input orientation:
 ---------------------------------------------------------------------
 Center     Atomic     Atomic              Coordinates (Angstroms)
 Number     Number      Type              X           Y           Z
 ---------------------------------------------------------------------
    1          6             0        0.092743    0.116550    0.207237
    2          1             0        0.859692   -0.091308   -0.528606
    3          8             0       -0.086196    1.421891    0.423111
    4          1             0       -0.795473    1.548874    1.077698
    5          6             0       -0.780911   -0.960910    0.742719
    6          6             0       -0.057728   -2.301914    0.885110
    7          1             0        0.571565   -2.491791    0.008740
    8          1             0        0.570515   -2.330199    1.782237
    9          1             0       -0.809610   -3.093145    0.943553
   10          6             0       -1.586078   -0.599651    1.994150
   11          1             0       -2.162730    0.323254    1.850531
   12          1             0       -2.317646   -1.391200    2.173509
   13          1             0       -0.945627   -0.498946    2.877855
   14          8             0       -1.549766   -0.878240   -0.435363
   15          8             0       -2.825101   -2.074028   -0.331919
   16          1             0       -2.590636   -2.450820   -1.198530
 ---------------------------------------------------------------------

 Alpha  occ. eigenvalues --  -19.22189 -19.16325 -19.14141 -10.28221 -10.25541
 Alpha  occ. eigenvalues --  -10.18781 -10.17865  -1.10479  -1.01395  -0.92133
 Alpha  occ. eigenvalues --   -0.77079  -0.71134  -0.69305  -0.60288  -0.51741
 Alpha  occ. eigenvalues --   -0.49619  -0.46433  -0.43988  -0.42826  -0.41840
 Alpha  occ. eigenvalues --   -0.40563  -0.39430  -0.39142  -0.36615  -0.35598
 Alpha  occ. eigenvalues --   -0.32745  -0.27727  -0.24210  -0.18845
 Alpha virt. eigenvalues --   -0.03179   0.04878   0.09603   0.11342   0.13123
 Alpha virt. eigenvalues --    0.14138   0.15280   0.17171   0.18820   0.19970
 Alpha virt. eigenvalues --    0.21070   0.22287   0.23252   0.27921   0.32567

  Beta  occ. eigenvalues --  -19.21779 -19.16413 -19.12825 -10.27425 -10.25600
  Beta  occ. eigenvalues --  -10.18776 -10.17844  -1.09557  -1.00844  -0.89493
  Beta  occ. eigenvalues --   -0.76885  -0.70511  -0.68515  -0.59981  -0.51383
  Beta  occ. eigenvalues --   -0.49303  -0.45544  -0.43138  -0.42052  -0.41117
  Beta  occ. eigenvalues --   -0.39745  -0.38941  -0.38015  -0.36560  -0.35357
  Beta  occ. eigenvalues --   -0.30112  -0.27158  -0.23444
  Beta virt. eigenvalues --   -0.07434   0.01448   0.05076   0.09813   0.11786
  Beta virt. eigenvalues --    0.13394   0.14278   0.15597   0.17204   0.19283
  Beta virt. eigenvalues --    0.20031   0.21326   0.22728   0.23381   0.28446

 Mulliken atomic charges:
              1
     1  C    0.119042
     2  H    0.181138
     3  O   -0.523238
     4  H    0.430654
     5  C    0.332255
     6  C   -0.473468
     7  H    0.143633
     8  H    0.140549
     9  H    0.177599
    10  C   -0.491546
    11  H    0.136745
    12  H    0.197813
    13  H    0.145670
    14  O   -0.388251
    15  O   -0.513791
    16  H    0.385197
 Sum of Mulliken charges=   0.00000

 Dipole moment (field-independent basis, Debye):
    X=     2.0874    Y=     0.4593    Z=     1.4151  Tot=     2.5633
 Quadrupole moment (field-independent basis, Debye-Ang):
   XX=   -49.8391   YY=   -41.1904   ZZ=   -37.9887
   XY=    -4.6554   XZ=    -1.8595   YZ=     3.4417

 Normal termination of Gaussian 03 at Thu Jul 18 22:49:17 2019.
