 Gaussian 03, Revision D.01,
 Gaussian 03:  AM64L-G03RevD.01 13-Oct-2005

 -------------------------------------
 # freq nosymm b3lyp/cbsb7 iop(7/33=1)
 -------------------------------------

 -------------------
 Title Card Required
 -------------------
 Symbolic Z-matrix:
 Charge =  0 Multiplicity = 2

                          Input orientation:
 ---------------------------------------------------------------------
 Center     Atomic     Atomic              Coordinates (Angstroms)
 Number     Number      Type              X           Y           Z
 ---------------------------------------------------------------------
    1          6             0        0.035388    0.129258    0.124955
    2          1             0        0.746845   -0.069918   -0.664296
    3          8             0       -0.164435    1.427626    0.345264
    4          1             0       -0.829480    1.540816    1.038227
    5          6             0       -0.779706   -0.958506    0.725483
    6          6             0       -0.019150   -2.280804    0.826946
    7          1             0        0.526264   -2.474653   -0.099987
    8          1             0        0.689242   -2.276650    1.659479
    9          1             0       -0.743680   -3.083304    0.969548
   10          6             0       -1.493258   -0.594665    2.028800
   11          1             0       -2.084548    0.320815    1.919083
   12          1             0       -2.203688   -1.387881    2.261622
   13          1             0       -0.793101   -0.482677    2.861182
   14          8             0       -1.653892   -0.925213   -0.381937
   15          8             0       -2.883085   -2.130369   -0.129933
   16          1             0       -2.762705   -2.505459   -1.012404
 ---------------------------------------------------------------------

 SCF Done:  E(UB+HF-LYP) =  -383.463749044     A.U. after   22 cycles

 Alpha  occ. eigenvalues --  -19.19325 -19.13926 -19.11402 -10.26776 -10.24464
 Alpha  occ. eigenvalues --  -10.17373 -10.16459  -1.11206  -1.02397  -0.92929
 Alpha  occ. eigenvalues --   -0.77796  -0.71720  -0.69864  -0.60999  -0.52349
 Alpha  occ. eigenvalues --   -0.50343  -0.47350  -0.44855  -0.43587  -0.42472
 Alpha  occ. eigenvalues --   -0.41261  -0.40155  -0.39677  -0.37197  -0.36344
 Alpha  occ. eigenvalues --   -0.33603  -0.29028  -0.25198  -0.19575
 Alpha virt. eigenvalues --   -0.04718   0.02055   0.04860   0.07422   0.08378
 Alpha virt. eigenvalues --    0.09754   0.10775   0.11538   0.14118   0.14949
 Alpha virt. eigenvalues --    0.17601   0.19766   0.20076   0.23914   0.25077

  Beta  occ. eigenvalues --  -19.18875 -19.14001 -19.10125 -10.25946 -10.24523
  Beta  occ. eigenvalues --  -10.17367 -10.16437  -1.10252  -1.01788  -0.90531
  Beta  occ. eigenvalues --   -0.77565  -0.71068  -0.69077  -0.60671  -0.51968
  Beta  occ. eigenvalues --   -0.50014  -0.46356  -0.44024  -0.42781  -0.41652
  Beta  occ. eigenvalues --   -0.40450  -0.39509  -0.38818  -0.37135  -0.36095
  Beta  occ. eigenvalues --   -0.31234  -0.28460  -0.24528
  Beta virt. eigenvalues --   -0.08511  -0.00283   0.02251   0.05028   0.07630
  Beta virt. eigenvalues --    0.08724   0.09840   0.10964   0.11605   0.14171
  Beta virt. eigenvalues --    0.15084   0.17729   0.19983   0.20773   0.24649

 Mulliken atomic charges:
              1
     1  C    0.126468
     2  H    0.141159
     3  O   -0.261830
     4  H    0.261781
     5  C   -0.020172
     6  C   -0.247903
     7  H    0.099736
     8  H    0.099441
     9  H    0.128067
    10  C   -0.246399
    11  H    0.081159
    12  H    0.151343
    13  H    0.110122
    14  O   -0.313052
    15  O   -0.355316
    16  H    0.245398
 Sum of Mulliken charges=   0.00000

 Dipole moment (field-independent basis, Debye):
    X=     2.0731    Y=     0.5092    Z=     1.1648  Tot=     2.4318
 Quadrupole moment (field-independent basis, Debye-Ang):
   XX=   -50.3967   YY=   -42.1689   ZZ=   -38.8461
   XY=    -4.3748   XZ=    -0.9974   YZ=     3.7441

  Exact polarizability:  76.699  21.201  78.267   2.472   5.998  55.946
 Approx polarizability: 133.597  50.967 120.809   7.020   8.542  78.338

 ******    1 imaginary frequencies (negative Signs) ******

                     1                      2                      3
                     A                      A                      A
 Frequencies --  -529.4452               108.2883               148.0435
 Red. masses --    13.7424                 4.3263                 3.7712
 Frc consts  --     2.2696                 0.0299                 0.0487
 IR Inten    --   378.1855                 3.4947                 2.4991

                     4                      5                      6
                     A                      A                      A
 Frequencies --   183.6538               204.3233               229.4134
 Red. masses --     1.1440                 1.4297                 1.5707
 Frc consts  --     0.0227                 0.0352                 0.0487
 IR Inten    --   106.9792                 7.3335                 2.4379

                     7                      8                      9
                     A                      A                      A
 Frequencies --   249.1722               272.7509               325.5232
 Red. masses --     1.5658                 1.7053                 2.3996
 Frc consts  --     0.0573                 0.0747                 0.1498
 IR Inten    --     1.2397                 4.9948                 7.3046

                    10                     11                     12
                     A                      A                      A
 Frequencies --   372.1286               397.9361               451.1495
 Red. masses --     2.4073                 2.9600                 3.8055
 Frc consts  --     0.1964                 0.2762                 0.4564
 IR Inten    --     2.7292                 6.5875                12.2667

                    13                     14                     15
                     A                      A                      A
 Frequencies --   494.6774               569.8819               692.9700
 Red. masses --     2.1585                 2.8124                 1.1658
 Frc consts  --     0.3112                 0.5381                 0.3299
 IR Inten    --    29.9654                 2.2552                79.8686

                    16                     17                     18
                     A                      A                      A
 Frequencies --   752.8115               872.3069               931.6180
 Red. masses --     3.4151                 2.5092                 1.4699
 Frc consts  --     1.1403                 1.1249                 0.7517
 IR Inten    --    12.6273                10.9809                 4.9572

                    19                     20                     21
                     A                      A                      A
 Frequencies --   970.7616              1002.9091              1022.3310
 Red. masses --     1.2913                 1.3155                 1.6151
 Frc consts  --     0.7170                 0.7796                 0.9946
 IR Inten    --    81.1236                 3.6583                16.5690

                    22                     23                     24
                     A                      A                      A
 Frequencies --  1157.6618              1183.2892              1222.6125
 Red. masses --     2.1501                 1.6023                 2.9970
 Frc consts  --     1.6978                 1.3218                 2.6395
 IR Inten    --    11.4980                81.7011               193.2213

                    25                     26                     27
                     A                      A                      A
 Frequencies --  1296.3993              1359.9990              1395.6755
 Red. masses --     2.1338                 1.8488                 1.3285
 Frc consts  --     2.1129                 2.0148                 1.5246
 IR Inten    --     6.6694                37.0655                19.4220

                    28                     29                     30
                     A                      A                      A
 Frequencies --  1408.3963              1462.9033              1472.4212
 Red. masses --     1.2458                 1.1574                 1.2620
 Frc consts  --     1.4560                 1.4594                 1.6120
 IR Inten    --    12.5664                19.0465                37.0241

                    31                     32                     33
                     A                      A                      A
 Frequencies --  1498.0439              1505.2290              1520.1936
 Red. masses --     1.1312                 1.3275                 1.0528
 Frc consts  --     1.4957                 1.7721                 1.4335
 IR Inten    --    21.0789                82.2956                10.5766

                    34                     35                     36
                     A                      A                      A
 Frequencies --  3020.8142              3035.4420              3085.6149
 Red. masses --     1.0412                 1.0358                 1.0982
 Frc consts  --     5.5982                 5.6232                 6.1606
 IR Inten    --    24.7379                13.2689                27.2210

                    37                     38                     39
                     A                      A                      A
 Frequencies --  3101.5318              3124.5509              3130.4419
 Red. masses --     1.1025                 1.1005                 1.0985
 Frc consts  --     6.2485                 6.3303                 6.3425
 IR Inten    --    30.4653                 2.9472                 4.0495

                    40                     41                     42
                     A                      A                      A
 Frequencies --  3225.8100              3767.0544              3805.2094
 Red. masses --     1.0903                 1.0646                 1.0680
 Frc consts  --     6.6849                 8.9010                 9.1113
 IR Inten    --     8.2506                74.7242                44.0285

 - Thermochemistry -
 -------------------
 Temperature   298.150 Kelvin.  Pressure   1.00000 Atm.
 Atom  1 has atomic number  6 and mass  12.00000

 Molecular mass:   105.05517 amu.
 Principal axes and moments of inertia in atomic units:
                           1         2         3
     EIGENVALUES --   501.89403 962.962411037.72817
           X            0.56431   0.65748  -0.49928
           Y            0.82024  -0.51507   0.24881
           Z            0.09358   0.54993   0.82995
 This molecule is an asymmetric top.
 Rotational symmetry number  1.
 Warning -- assumption of classical behavior for rotation
           may cause significant error
 Rotational temperatures (Kelvin)      0.17257     0.08995     0.08346
 Rotational constants (GHZ):           3.59586     1.87416     1.73913
    1 imaginary frequencies ignored.
 Zero-point vibrational energy     335145.5 (Joules/Mol)
                                   80.10169 (Kcal/Mol)
 Warning -- explicit consideration of  13 degrees of freedom as
           vibrations may cause significant error
 Vibrational temperatures:    155.80   213.00   264.24   293.98   330.07
          (Kelvin)            358.50   392.43   468.35   535.41   572.54
                              649.10   711.73   819.93   997.03  1083.13
                             1255.05  1340.39  1396.71  1442.96  1470.90
                             1665.62  1702.49  1759.06  1865.23  1956.73
                             2008.06  2026.37  2104.79  2118.48  2155.35
                             2165.69  2187.22  4346.27  4367.32  4439.51
                             4462.41  4495.53  4504.00  4641.22  5419.94
                             5474.84

 Zero-point correction=                           0.127650 (Hartree/Particle)
 Thermal correction to Energy=                    0.136696
 Thermal correction to Enthalpy=                  0.137640
 Thermal correction to Gibbs Free Energy=         0.094296
 Sum of electronic and zero-point Energies=           -383.336099
 Sum of electronic and thermal Energies=              -383.327053
 Sum of electronic and thermal Enthalpies=            -383.326109
 Sum of electronic and thermal Free Energies=         -383.369453

                     E (Thermal)             CV                S
                      KCal/Mol        Cal/Mol-Kelvin    Cal/Mol-Kelvin
 Total                   85.778             32.352             91.225
 Electronic               0.000              0.000              1.377
 Translational            0.889              2.981             39.865
 Rotational               0.889              2.981             27.708
 Vibrational             84.001             26.391             22.275
 Vibration  1             0.606              1.943              3.299
 Vibration  2             0.617              1.905              2.697
 Vibration  3             0.631              1.862              2.291
 Vibration  4             0.640              1.834              2.094
 Vibration  5             0.652              1.796              1.884
 Vibration  6             0.662              1.764              1.736
 Vibration  7             0.676              1.724              1.579
 Vibration  8             0.710              1.624              1.282
 Vibration  9             0.744              1.529              1.071
 Vibration 10             0.764              1.475              0.970
 Vibration 11             0.810              1.358              0.792
 Vibration 12             0.850              1.262              0.672
 Vibration 13             0.926              1.096              0.504

 Optimization completed.
    -- Stationary point found.
 Normal termination of Gaussian 03 at Sun Jun  9 14:51:21 2013.
