 Gaussian 03, Revision D.01,
 Gaussian 03:  AM64L-G03RevD.01 13-Oct-2005

 -----------------------------------
 # freq nosymm bmk/cbsb7 iop(7/33=1)
 -----------------------------------

 -------------------
 Title Card Required
 -------------------
 Symbolic Z-matrix:
 Charge =  0 Multiplicity = 2

                          Input orientation:
 ---------------------------------------------------------------------
 Center     Atomic     Atomic              Coordinates (Angstroms)
 Number     Number      Type              X           Y           Z
 ---------------------------------------------------------------------
    1          1             0       -1.045752   -1.633987    0.000000
 ---------------------------------------------------------------------

 SCF Done:  E(UBMK+HF-BMK) = -0.498618862463     A.U. after    7 cycles

 Alpha  occ. eigenvalues --   -0.36717
 Alpha virt. eigenvalues --    0.29838   1.32934   1.32934   1.32934   2.24506
  Beta virt. eigenvalues --   -0.05287   0.40533   1.44753   1.44753   1.44753
  Beta virt. eigenvalues --    2.41582

 Mulliken atomic charges:
              1
     1  H    0.000000
 Sum of Mulliken charges=   0.00000

 Dipole moment (field-independent basis, Debye):
    X=     0.0000    Y=     0.0000    Z=     0.0000  Tot=     0.0000
 Quadrupole moment (field-independent basis, Debye-Ang):
   XX=    -1.3801   YY=    -1.3801   ZZ=    -1.3801
   XY=     0.0000   XZ=     0.0000   YZ=     0.0000

  Exact polarizability:   0.566   0.000   0.566   0.000   0.000   0.566
 Approx polarizability:   0.498   0.000   0.498   0.000   0.000   0.498

 - Thermochemistry -
 -------------------
 Temperature   298.150 Kelvin.  Pressure   1.00000 Atm.
 Atom  1 has atomic number  1 and mass   1.00783
 Molecular mass:     1.00783 amu.
 Zero-point vibrational energy          0.0 (Joules/Mol)
                                    0.00000 (Kcal/Mol)
 Vibrational temperatures:
          (Kelvin)

 Zero-point correction=                           0.000000 (Hartree/Particle)
 Thermal correction to Energy=                    0.001416
 Thermal correction to Enthalpy=                  0.002360
 Thermal correction to Gibbs Free Energy=        -0.010654
 Sum of electronic and zero-point Energies=             -0.498619
 Sum of electronic and thermal Energies=                -0.497203
 Sum of electronic and thermal Enthalpies=              -0.496258
 Sum of electronic and thermal Free Energies=           -0.509273

                     E (Thermal)             CV                S
                      KCal/Mol        Cal/Mol-Kelvin    Cal/Mol-Kelvin
 Total                    0.889              2.981             27.392
 Electronic               0.000              0.000              1.377
 Translational            0.889              2.981             26.014
 Rotational               0.000              0.000              0.000
 Vibrational              0.000              0.000              0.000

 Optimization completed.
    -- Stationary point found.
 Normal termination of Gaussian 03 at Fri Jul 11 15:20:40 2014.
