 Gaussian 03, Revision D.01,
 Gaussian 03:  AM64L-G03RevD.01 13-Oct-2005

 -------------------------------------
 # freq nosymm b3lyp/cbsb7 iop(7/33=1)
 -------------------------------------

 -------------------
 Title Card Required
 -------------------
 Symbolic Z-matrix:
 Charge =  0 Multiplicity = 2

                          Input orientation:
 ---------------------------------------------------------------------
 Center     Atomic     Atomic              Coordinates (Angstroms)
 Number     Number      Type              X           Y           Z
 ---------------------------------------------------------------------
    1          6             0       -0.501780    0.198682    0.156088
    2          1             0       -1.448409   -0.250778   -0.163071
    3          1             0        0.205129   -0.607353    0.384847
    4          6             0       -0.687967    1.046858    1.421487
    5          1             0        0.284546    1.457046    1.708337
    6          6             0       -1.244548    0.193815    2.566406
    7          1             0       -0.600192   -0.672723    2.738289
    8          1             0       -1.295645    0.759997    3.498419
    9          1             0       -2.247981   -0.176543    2.336158
   10          6             0       -1.647019    2.285920    1.195656
   11          1             0       -2.548232    1.899932    0.693276
   12          1             0       -1.894156    2.694780    2.185114
   13          8             0       -0.989020    3.198576    0.426019
   14          8             0        0.089487    0.872841   -0.941909
   15          8             0       -0.959963    1.514127   -1.710949
   16          1             0       -0.982587    2.385714   -1.269520
 ---------------------------------------------------------------------

 SCF Done:  E(UB+HF-LYP) =  -383.454420556     A.U. after   30 cycles

 Alpha  occ. eigenvalues --  -19.17684 -19.17275 -19.15326 -10.24258 -10.23117
 Alpha  occ. eigenvalues --  -10.21633 -10.18983  -1.11424  -1.04828  -0.91031
 Alpha  occ. eigenvalues --   -0.81872  -0.69217  -0.68048  -0.60004  -0.53249
 Alpha  occ. eigenvalues --   -0.51652  -0.49125  -0.47638  -0.45362  -0.44253
 Alpha  occ. eigenvalues --   -0.42813  -0.41153  -0.40718  -0.37776  -0.36771
 Alpha  occ. eigenvalues --   -0.32575  -0.30332  -0.28575  -0.27399
 Alpha virt. eigenvalues --    0.02288   0.02781   0.05752   0.06523   0.06753
 Alpha virt. eigenvalues --    0.09793   0.10594   0.11895   0.12930   0.14052
 Alpha virt. eigenvalues --    0.15603   0.17412   0.19391   0.19673   0.23248

  Beta  occ. eigenvalues --  -19.17232 -19.15459 -19.15331 -10.24300 -10.23123
  Beta  occ. eigenvalues --  -10.21367 -10.18965  -1.11347  -1.00095  -0.90984
  Beta  occ. eigenvalues --   -0.81165  -0.68964  -0.66936  -0.59382  -0.53188
  Beta  occ. eigenvalues --   -0.51263  -0.48047  -0.46320  -0.44177  -0.43466
  Beta  occ. eigenvalues --   -0.42302  -0.40435  -0.38715  -0.37609  -0.35828
  Beta  occ. eigenvalues --   -0.28703  -0.28522  -0.27260
  Beta virt. eigenvalues --   -0.16170   0.02327   0.02872   0.05820   0.06602
  Beta virt. eigenvalues --    0.06884   0.09932   0.10716   0.12055   0.13144
  Beta virt. eigenvalues --    0.14142   0.15944   0.17765   0.19620   0.19938

 Mulliken atomic charges:
              1
     1  C    0.054132
     2  H    0.113883
     3  H    0.122921
     4  C   -0.242380
     5  H    0.144808
     6  C   -0.289828
     7  H    0.121759
     8  H    0.122202
     9  H    0.114599
    10  C    0.016598
    11  H    0.116218
    12  H    0.108506
    13  O   -0.262197
    14  O   -0.237153
    15  O   -0.276361
    16  H    0.272295
 Sum of Mulliken charges=   0.00000

 Dipole moment (field-independent basis, Debye):
    X=    -1.3824    Y=    -1.1849    Z=     3.7118  Tot=     4.1343
 Quadrupole moment (field-independent basis, Debye-Ang):
   XX=   -40.2109   YY=   -46.2858   ZZ=   -43.6832
   XY=    -2.2887   XZ=    -2.4799   YZ=     2.5472

  Exact polarizability:  51.699  -3.784  64.820  -1.274  -6.170  65.785
 Approx polarizability:  78.204  -4.321  93.050   0.896  -9.840  85.817

                     1                      2                      3
                     A                      A                      A
 Frequencies --    96.0457               125.8861               199.5869
 Red. masses --     4.1075                 3.3600                 4.3330
 Frc consts  --     0.0223                 0.0314                 0.1017
 IR Inten    --     0.8168                 2.9270                 3.2433

                     4                      5                      6
                     A                      A                      A
 Frequencies --   207.6959               259.7345               326.2693
 Red. masses --     1.0543                 5.9979                 2.5987
 Frc consts  --     0.0268                 0.2384                 0.1630
 IR Inten    --     0.1879                13.8905                 2.2451

                     7                      8                      9
                     A                      A                      A
 Frequencies --   345.8080               394.9403               442.0091
 Red. masses --     5.4814                 2.5225                 2.9371
 Frc consts  --     0.3862                 0.2318                 0.3381
 IR Inten    --    18.8919                 2.3899                 2.5546

                    10                     11                     12
                     A                      A                      A
 Frequencies --   547.8167               664.3909               755.0815
 Red. masses --     3.0425                 1.0763                 3.7878
 Frc consts  --     0.5380                 0.2799                 1.2724
 IR Inten    --     0.6865               164.5165                10.0398

                    13                     14                     15
                     A                      A                      A
 Frequencies --   836.2183               879.5715               910.4338
 Red. masses --     1.5899                 3.4969                 1.9567
 Frc consts  --     0.6550                 1.5940                 0.9556
 IR Inten    --    10.6988                 1.2046                 9.0044

                    16                     17                     18
                     A                      A                      A
 Frequencies --   946.5308              1006.6014              1053.6906
 Red. masses --     1.6881                 2.2749                 6.1222
 Frc consts  --     0.8911                 1.3581                 4.0048
 IR Inten    --     2.8100                35.1059                25.2044

                    19                     20                     21
                     A                      A                      A
 Frequencies --  1071.1212              1112.7009              1157.9292
 Red. masses --     3.3616                 2.0211                 2.2689
 Frc consts  --     2.2724                 1.4744                 1.7924
 IR Inten    --     0.2635                 7.8055                 6.4915

                    22                     23                     24
                     A                      A                      A
 Frequencies --  1228.0092              1289.6667              1305.6482
 Red. masses --     1.2631                 1.1917                 1.1230
 Frc consts  --     1.1222                 1.1678                 1.1279
 IR Inten    --     0.5218                17.1115                 0.8066

                    25                     26                     27
                     A                      A                      A
 Frequencies --  1315.8231              1347.5157              1394.5058
 Red. masses --     1.2625                 1.2272                 1.3213
 Frc consts  --     1.2879                 1.3130                 1.5138
 IR Inten    --     6.4123                 1.9261                 2.6497

                    28                     29                     30
                     A                      A                      A
 Frequencies --  1412.7724              1455.9629              1458.3824
 Red. masses --     1.2138                 1.0866                 1.0926
 Frc consts  --     1.4274                 1.3571                 1.3692
 IR Inten    --     5.1670                33.0543                25.8156

                    31                     32                     33
                     A                      A                      A
 Frequencies --  1495.8396              1499.5719              1523.6988
 Red. masses --     1.0448                 1.0507                 1.1138
 Frc consts  --     1.3774                 1.3921                 1.5235
 IR Inten    --     8.8905                 5.9823                 0.9996

                    34                     35                     36
                     A                      A                      A
 Frequencies --  2946.7713              3005.9912              3016.5508
 Red. masses --     1.0495                 1.1037                 1.0554
 Frc consts  --     5.3696                 5.8760                 5.6585
 IR Inten    --    28.5887                34.6906                16.3721

                    37                     38                     39
                     A                      A                      A
 Frequencies --  3029.3384              3052.3866              3070.1165
 Red. masses --     1.0375                 1.0895                 1.1031
 Frc consts  --     5.6095                 5.9809                 6.1261
 IR Inten    --    25.8538                 1.4727                13.0657

                    40                     41                     42
                     A                      A                      A
 Frequencies --  3092.3088              3105.4037              3579.0381
 Red. masses --     1.1009                 1.1014                 1.0678
 Frc consts  --     6.2027                 6.2578                 8.0590
 IR Inten    --    33.7078                25.3419               139.1516

 - Thermochemistry -
 -------------------
 Temperature   298.150 Kelvin.  Pressure   1.00000 Atm.
 Atom  1 has atomic number  6 and mass  12.00000

 Molecular mass:   105.05517 amu.
 Principal axes and moments of inertia in atomic units:
                           1         2         3
     EIGENVALUES --   507.59338 841.974011207.55988
           X           -0.17497  -0.29704   0.93870
           Y           -0.19550   0.94490   0.26257
           Z            0.96497   0.13758   0.22341
 This molecule is an asymmetric top.
 Rotational symmetry number  1.
 Warning -- assumption of classical behavior for rotation
           may cause significant error
 Rotational temperatures (Kelvin)      0.17064     0.10287     0.07173
 Rotational constants (GHZ):           3.55549     2.14346     1.49454
 Zero-point vibrational energy     346709.9 (Joules/Mol)
                                   82.86565 (Kcal/Mol)
 Warning -- explicit consideration of  10 degrees of freedom as
           vibrations may cause significant error
 Vibrational temperatures:    138.19   181.12   287.16   298.83   373.70
          (Kelvin)            469.43   497.54   568.23   635.95   788.19
                              955.91  1086.39  1203.13  1265.51  1309.91
                             1361.85  1448.27  1516.02  1541.10  1600.93
                             1666.00  1766.83  1855.54  1878.53  1893.17
                             1938.77  2006.38  2032.66  2094.80  2098.28
                             2152.18  2157.55  2192.26  4239.74  4324.95
                             4340.14  4358.54  4391.70  4417.21  4449.14
                             4467.98  5149.43

 Zero-point correction=                           0.132055 (Hartree/Particle)
 Thermal correction to Energy=                    0.140109
 Thermal correction to Enthalpy=                  0.141053
 Thermal correction to Gibbs Free Energy=         0.099260
 Sum of electronic and zero-point Energies=           -383.322366
 Sum of electronic and thermal Energies=              -383.314312
 Sum of electronic and thermal Enthalpies=            -383.313367
 Sum of electronic and thermal Free Energies=         -383.355160

                     E (Thermal)             CV                S
                      KCal/Mol        Cal/Mol-Kelvin    Cal/Mol-Kelvin
 Total                   87.920             28.999             87.961
 Electronic               0.000              0.000              1.377
 Translational            0.889              2.981             39.865
 Rotational               0.889              2.981             27.736
 Vibrational             86.142             23.037             18.982
 Vibration  1             0.603              1.952              3.533
 Vibration  2             0.611              1.927              3.008
 Vibration  3             0.638              1.840              2.137
 Vibration  4             0.641              1.829              2.064
 Vibration  5             0.668              1.746              1.664
 Vibration  6             0.710              1.623              1.278
 Vibration  7             0.724              1.584              1.185
 Vibration  8             0.762              1.481              0.981
 Vibration  9             0.802              1.379              0.820
 Vibration 10             0.903              1.144              0.549

 Optimization completed.
    -- Stationary point found.
 Normal termination of Gaussian 03 at Tue Jun 18 11:49:53 2013.
