 Gaussian 03, Revision D.01,
 Gaussian 03:  AM64L-G03RevD.01 13-Oct-2005

 -------------------------------------
 # freq b3lyp/cbsb7 nosymm iop(7/33=1)
 -------------------------------------

 --------
 H2O freq
 --------
 Symbolic Z-matrix:
 Charge =  0 Multiplicity = 1

                          Input orientation:
 ---------------------------------------------------------------------
 Center     Atomic     Atomic              Coordinates (Angstroms)
 Number     Number      Type              X           Y           Z
 ---------------------------------------------------------------------
    1          8             0        0.000000    0.000000    0.000000
    2          1             0        0.000000    0.000000    0.961989
    3          1             0        0.934182    0.000000   -0.229621
 ---------------------------------------------------------------------

 SCF Done:  E(RB+HF-LYP) =  -76.4474482880     A.U. after    9 cycles

 Alpha  occ. eigenvalues --  -19.10268  -1.00264  -0.52157  -0.37650  -0.29942
 Alpha virt. eigenvalues --    0.02862   0.10392   0.37821   0.42394   0.75996
 Alpha virt. eigenvalues --    0.76423   0.86214   1.06656   1.23972   1.26839
 Alpha virt. eigenvalues --    1.45893   1.65879   1.92086   2.05066   2.28827

 Mulliken atomic charges:
              1
     1  O   -0.473506
     2  H    0.236753
     3  H    0.236753
 Sum of Mulliken charges=   0.00000

 Dipole moment (field-independent basis, Debye):
    X=     1.6291    Y=     0.0000    Z=     1.2772  Tot=     2.0701
 Quadrupole moment (field-independent basis, Debye-Ang):
   XX=    -5.0959   YY=    -7.2001   ZZ=    -4.8002
   XY=     0.0000   XZ=    -0.6015   YZ=     0.0000

  Exact polarizability:   6.634   0.000   4.055  -0.875   0.000   7.064
 Approx polarizability:   8.150   0.000   4.314  -1.088   0.000   8.685

                     1                      2                      3
                    B2                     B2                     B2
 Frequencies --  1638.4678              3809.9312              3906.9015
 Red. masses --     1.0823                 1.0455                 1.0812
 Frc consts  --     1.7119                 8.9418                 9.7232
 IR Inten    --    58.0774                 3.5796                24.9806

 - Thermochemistry -
 -------------------
 Temperature   298.150 Kelvin.  Pressure   1.00000 Atm.
 Atom  1 has atomic number  8 and mass  15.99491

 Molecular mass:    18.01056 amu.
 Principal axes and moments of inertia in atomic units:
                           1         2         3
     EIGENVALUES --     2.25184   4.12560   6.37744
           X           -0.61697   0.78699   0.00000
           Y            0.00000   0.00000   1.00000
           Z            0.78699   0.61697   0.00000
 This molecule is an asymmetric top.
 Rotational symmetry number  2.
 Rotational temperatures (Kelvin)     38.46365    20.99423    13.58129
 Rotational constants (GHZ):         801.45328   437.44926   282.98848
 Zero-point vibrational energy      55957.1 (Joules/Mol)
                                   13.37407 (Kcal/Mol)
 Vibrational temperatures:   2357.39  5481.63  5621.15
          (Kelvin)

 Zero-point correction=                           0.021313 (Hartree/Particle)
 Thermal correction to Energy=                    0.024148
 Thermal correction to Enthalpy=                  0.025092
 Thermal correction to Gibbs Free Energy=         0.003666
 Sum of electronic and zero-point Energies=            -76.426135
 Sum of electronic and thermal Energies=               -76.423300
 Sum of electronic and thermal Enthalpies=             -76.422356
 Sum of electronic and thermal Free Energies=          -76.443782

                     E (Thermal)             CV                S
                      KCal/Mol        Cal/Mol-Kelvin    Cal/Mol-Kelvin
 Total                   15.153              6.007             45.096
 Electronic               0.000              0.000              0.000
 Translational            0.889              2.981             34.608
 Rotational               0.889              2.981             10.481
 Vibrational             13.376              0.046              0.007

 Optimization completed.
    -- Stationary point found.
 Normal termination of Gaussian 03 at Fri Nov 20 16:10:58 2009.
