 Gaussian 03, Revision D.01,
 Gaussian 03:  AM64L-G03RevD.01 13-Oct-2005

 -------------------------------------
 # freq nosymm b3lyp/cbsb7 iop(7/33=1)
 -------------------------------------

 -------
 NBO NRT
 -------
 Symbolic Z-matrix:
 Charge =  0 Multiplicity = 2

                          Input orientation:
 ---------------------------------------------------------------------
 Center     Atomic     Atomic              Coordinates (Angstroms)
 Number     Number      Type              X           Y           Z
 ---------------------------------------------------------------------
    1          6             0       -4.134330   -0.267530    0.637050
    2          6             0       -3.149340    0.700250    0.081680
    3          1             0       -2.542920    1.291780    0.757850
    4          6             0       -2.815620    0.701120   -1.366580
    5          8             0       -2.497450   -0.601460   -1.893990
    6          8             0       -1.268240   -1.041260   -1.243440
    7          1             0       -4.541760    0.072160    1.593010
    8          1             0       -3.671340   -1.250410    0.811420
    9          1             0       -4.965150   -0.440860   -0.055700
   10          1             0       -2.004410    1.399510   -1.597900
   11          1             0       -3.689330    0.962530   -1.982340
   12          1             0       -0.699000   -1.132060   -2.019210
 ---------------------------------------------------------------------

 SCF Done:  E(UB+HF-LYP) =  -268.897574622     A.U. after   15 cycles

 Alpha  occ. eigenvalues --  -19.17108 -19.16342 -10.22209 -10.18000 -10.16312
 Alpha  occ. eigenvalues --   -1.11242  -0.91284  -0.77673  -0.68393  -0.58470
 Alpha  occ. eigenvalues --   -0.51251  -0.48854  -0.46996  -0.43350  -0.41294
 Alpha  occ. eigenvalues --   -0.39538  -0.37399  -0.35326  -0.30996  -0.26449
 Alpha  occ. eigenvalues --   -0.20270
 Alpha virt. eigenvalues --    0.01619   0.04534   0.06932   0.07490   0.08471
 Alpha virt. eigenvalues --    0.12654   0.12995   0.13102   0.17036   0.23190
 Alpha virt. eigenvalues --    0.27201   0.30480   0.31397   0.35391   0.38821

  Beta  occ. eigenvalues --  -19.16941 -19.16338 -10.22296 -10.16617 -10.16391
  Beta  occ. eigenvalues --   -1.11037  -0.91012  -0.75841  -0.68064  -0.56961
  Beta  occ. eigenvalues --   -0.50793  -0.48564  -0.46241  -0.42880  -0.40144
  Beta  occ. eigenvalues --   -0.38938  -0.37166  -0.34927  -0.30634  -0.26253
  Beta virt. eigenvalues --   -0.05991   0.01775   0.04775   0.07022   0.07878
  Beta virt. eigenvalues --    0.08558   0.13006   0.13219   0.13385   0.17842
  Beta virt. eigenvalues --    0.24172   0.27739   0.30860   0.31851   0.35991

 Mulliken atomic charges:
              1
     1  C   -0.280057
     2  C   -0.181078
     3  H    0.115793
     4  C    0.027515
     5  O   -0.251838
     6  O   -0.271213
     7  H    0.110974
     8  H    0.135694
     9  H    0.108262
    10  H    0.102324
    11  H    0.118639
    12  H    0.264985
 Sum of Mulliken charges=   0.00000

 Dipole moment (field-independent basis, Debye):
    X=     0.4904    Y=     1.0980    Z=    -0.4480  Tot=     1.2833
 Quadrupole moment (field-independent basis, Debye-Ang):
   XX=   -30.2593   YY=   -31.7812   ZZ=   -28.7036
   XY=    -3.6431   XZ=    -2.2957   YZ=    -0.7635

  Exact polarizability:  45.938  -1.884  41.183  -4.330  -0.291  44.182
 Approx polarizability:  61.438  -3.586  55.547   1.031  -0.006  57.672

                     1                      2                      3
                     A                      A                      A
 Frequencies --    49.6452                96.9181               148.6812
 Red. masses --     2.7583                 1.0498                 1.6852
 Frc consts  --     0.0040                 0.0058                 0.0219
 IR Inten    --     1.3549                 0.2449                41.5244

                     4                      5                      6
                     A                      A                      A
 Frequencies --   177.0380               246.9412               397.2671
 Red. masses --     1.4862                 2.7988                 2.3765
 Frc consts  --     0.0274                 0.1006                 0.2210
 IR Inten    --    85.3476                 5.7252                 5.8083

                     7                      8                      9
                     A                      A                      A
 Frequencies --   423.7016               598.5738               845.5363
 Red. masses --     1.4511                 4.0511                 4.8958
 Frc consts  --     0.1535                 0.8552                 2.0622
 IR Inten    --    17.3904                17.1611                28.7806

                    10                     11                     12
                     A                      A                      A
 Frequencies --   879.1501               938.5972               950.1096
 Red. masses --     3.0118                 1.7532                 3.3974
 Frc consts  --     1.3715                 0.9100                 1.8070
 IR Inten    --     6.1822                 0.2687                22.5091

                    13                     14                     15
                     A                      A                      A
 Frequencies --   994.7247              1133.9276              1149.6187
 Red. masses --     1.4057                 1.9319                 2.0811
 Frc consts  --     0.8195                 1.4635                 1.6205
 IR Inten    --     0.7773                 1.3256                 3.5526

                    16                     17                     18
                     A                      A                      A
 Frequencies --  1275.3078              1353.1027              1373.1084
 Red. masses --     1.1461                 1.1376                 1.2514
 Frc consts  --     1.0983                 1.2272                 1.3901
 IR Inten    --     4.5997                24.5915                42.6422

                    19                     20                     21
                     A                      A                      A
 Frequencies --  1381.4567              1409.7579              1456.0637
 Red. masses --     1.4149                 1.3356                 1.1213
 Frc consts  --     1.5910                 1.5640                 1.4007
 IR Inten    --     2.5395                 9.8559                 2.3730

                    22                     23                     24
                     A                      A                      A
 Frequencies --  1474.7632              1485.0777              2973.0578
 Red. masses --     1.0807                 1.0510                 1.0534
 Frc consts  --     1.3849                 1.3657                 5.4859
 IR Inten    --    10.2795                 7.1345                20.9075

                    25                     26                     27
                     A                      A                      A
 Frequencies --  2982.7426              3034.9484              3046.3390
 Red. masses --     1.0620                 1.0780                 1.0985
 Frc consts  --     5.5668                 5.8500                 6.0064
 IR Inten    --    26.0390                26.0474                41.7722

                    28                     29                     30
                     A                      A                      A
 Frequencies --  3083.7908              3174.3484              3777.8469
 Red. masses --     1.1001                 1.0892                 1.0686
 Frc consts  --     6.1640                 6.4666                 8.9861
 IR Inten    --    24.8654                20.7839                40.0856

 - Thermochemistry -
 -------------------
 Temperature   298.150 Kelvin.  Pressure   1.00000 Atm.
 Atom  1 has atomic number  6 and mass  12.00000

 Molecular mass:    75.04460 amu.
 Principal axes and moments of inertia in atomic units:
                           1         2         3
     EIGENVALUES --   201.52787 555.54267 618.13705
           X            0.69208  -0.15912   0.70406
           Y           -0.29426   0.82847   0.47649
           Z           -0.65912  -0.53695   0.52654
 This molecule is an asymmetric top.
 Rotational symmetry number  1.
 Rotational temperatures (Kelvin)      0.42979     0.15591     0.14012
 Rotational constants (GHZ):           8.95529     3.24861     2.91965
 Zero-point vibrational energy     253082.8 (Joules/Mol)
                                   60.48824 (Kcal/Mol)
 Warning -- explicit consideration of   8 degrees of freedom as
           vibrations may cause significant error
 Vibrational temperatures:     71.43   139.44   213.92   254.72   355.29
          (Kelvin)            571.58   609.61   861.21  1216.54  1264.90
                             1350.43  1366.99  1431.19  1631.47  1654.04
                             1834.88  1946.81  1975.59  1987.61  2028.32
                             2094.95  2121.85  2136.69  4277.56  4291.50
                             4366.61  4383.00  4436.88  4567.17  5435.47

 Zero-point correction=                           0.096394 (Hartree/Particle)
 Thermal correction to Energy=                    0.103654
 Thermal correction to Enthalpy=                  0.104598
 Thermal correction to Gibbs Free Energy=         0.064525
 Sum of electronic and zero-point Energies=           -268.801180
 Sum of electronic and thermal Energies=              -268.793921
 Sum of electronic and thermal Enthalpies=            -268.792977
 Sum of electronic and thermal Free Energies=         -268.833049

                     E (Thermal)             CV                S
                      KCal/Mol        Cal/Mol-Kelvin    Cal/Mol-Kelvin
 Total                   65.044             23.095             84.340
 Electronic               0.000              0.000              1.377
 Translational            0.889              2.981             38.862
 Rotational               0.889              2.981             25.740
 Vibrational             63.266             17.134             18.360
 Vibration  1             0.595              1.978              4.831
 Vibration  2             0.603              1.951              3.515
 Vibration  3             0.618              1.904              2.689
 Vibration  4             0.628              1.871              2.359
 Vibration  5             0.661              1.768              1.752
 Vibration  6             0.764              1.476              0.973
 Vibration  7             0.786              1.419              0.879
 Vibration  8             0.957              1.035              0.452

 Normal termination of Gaussian 03 at Sun May 19 19:50:41 2019.
