 Gaussian 03, Revision D.01,
 Gaussian 03:  AM64L-G03RevD.01 13-Oct-2005

 -------------------------------------
 # freq nosymm b3lyp/cbsb7 iop(7/33=1)
 -------------------------------------

 -------
 NBO NRT
 -------
 Symbolic Z-matrix:
 Charge =  0 Multiplicity = 2

                          Input orientation:
 ---------------------------------------------------------------------
 Center     Atomic     Atomic              Coordinates (Angstroms)
 Number     Number      Type              X           Y           Z
 ---------------------------------------------------------------------
    1          6             0        0.035740   -0.060860    0.070020
    2          6             0        0.046290   -0.073730    1.640790
    3          8             0        1.429510   -0.149910    2.044990
    4          8             0        1.506580   -0.688470    3.365960
    5          8             0       -0.736920   -0.964390    2.193060
    6          1             0        0.393780   -1.054260   -0.216980
    7          6             0       -1.395650    0.130610   -0.433830
    8          6             0        0.996550    1.000530   -0.473250
    9          1             0       -0.312320    0.932530    1.978460
   10          1             0        0.753450   -1.312970    3.360330
   11          1             0        1.006380    0.958290   -1.565840
   12          1             0        2.014410    0.846790   -0.115280
   13          1             0        0.678450    2.006250   -0.181080
   14          1             0       -1.417190    0.052530   -1.523910
   15          1             0       -1.780620    1.119270   -0.164250
   16          1             0       -2.067800   -0.621180   -0.019670
 ---------------------------------------------------------------------

 SCF Done:  E(UB+HF-LYP) =  -383.468027663     A.U. after   24 cycles

 Alpha  occ. eigenvalues --  -19.19678 -19.18190 -19.16584 -10.29468 -10.21241
 Alpha  occ. eigenvalues --  -10.17545 -10.17517  -1.15516  -1.05636  -0.91871
 Alpha  occ. eigenvalues --   -0.81705  -0.70419  -0.66795  -0.60258  -0.57176
 Alpha  occ. eigenvalues --   -0.50230  -0.49941  -0.46616  -0.43449  -0.43323
 Alpha  occ. eigenvalues --   -0.42158  -0.40345  -0.39432  -0.37302  -0.36155
 Alpha  occ. eigenvalues --   -0.35469  -0.33251  -0.31594  -0.26737
 Alpha virt. eigenvalues --    0.00882   0.03736   0.05550   0.08021   0.08251
 Alpha virt. eigenvalues --    0.09819   0.10719   0.11408   0.13302   0.13729
 Alpha virt. eigenvalues --    0.16942   0.19137   0.20857   0.21482   0.24366

  Beta  occ. eigenvalues --  -19.19428 -19.18038 -19.14824 -10.29526 -10.21036
  Beta  occ. eigenvalues --  -10.17552 -10.17513  -1.14911  -1.02433  -0.91140
  Beta  occ. eigenvalues --   -0.81297  -0.70379  -0.65702  -0.59342  -0.56335
  Beta  occ. eigenvalues --   -0.49308  -0.48258  -0.46288  -0.43048  -0.42042
  Beta  occ. eigenvalues --   -0.41681  -0.40257  -0.38221  -0.36407  -0.35772
  Beta  occ. eigenvalues --   -0.34740  -0.30784  -0.26387
  Beta virt. eigenvalues --   -0.17110   0.01165   0.03898   0.05841   0.08206
  Beta virt. eigenvalues --    0.08374   0.09964   0.10931   0.11565   0.13349
  Beta virt. eigenvalues --    0.13734   0.17163   0.19407   0.21469   0.21659

 Mulliken atomic charges:
              1
     1  C   -0.247413
     2  C    0.263839
     3  O   -0.224070
     4  O   -0.219560
     5  O   -0.303978
     6  H    0.142267
     7  C   -0.269699
     8  C   -0.271824
     9  H    0.162374
    10  H    0.259787
    11  H    0.114448
    12  H    0.139516
    13  H    0.104728
    14  H    0.115267
    15  H    0.103676
    16  H    0.130642
 Sum of Mulliken charges=   0.00000

 Dipole moment (field-independent basis, Debye):
    X=    -1.2388    Y=     0.6499    Z=    -2.0008  Tot=     2.4413
 Quadrupole moment (field-independent basis, Debye-Ang):
   XX=   -48.6579   YY=   -41.4818   ZZ=   -47.5649
   XY=    -1.1846   XZ=    -4.0388   YZ=     0.5266

  Exact polarizability:  69.904   3.318  53.979   9.915  -9.014  73.142
 Approx polarizability: 111.961  11.724  81.453   9.882 -10.426  96.333

 ******    1 imaginary frequencies (negative Signs) ******

                     1                      2                      3
                     A                      A                      A
 Frequencies --  -137.7378                82.6011               195.7537
 Red. masses --     6.4328                 3.7207                 3.7109
 Frc consts  --     0.0719                 0.0150                 0.0838
 IR Inten    --    13.2003                 0.0669                 1.2156

                     4                      5                      6
                     A                      A                      A
 Frequencies --   221.1795               232.1522               284.4870
 Red. masses --     1.0845                 1.1235                 1.8792
 Frc consts  --     0.0313                 0.0357                 0.0896
 IR Inten    --     0.1225                 2.2364                16.4737

                     7                      8                      9
                     A                      A                      A
 Frequencies --   326.4254               373.5108               416.9148
 Red. masses --     2.7389                 4.0682                 3.5570
 Frc consts  --     0.1719                 0.3344                 0.3643
 IR Inten    --     2.8254                10.9297                 4.1444

                    10                     11                     12
                     A                      A                      A
 Frequencies --   439.7849               494.4615               655.2648
 Red. masses --     2.2722                 1.9141                 4.4514
 Frc consts  --     0.2589                 0.2757                 1.1261
 IR Inten    --    16.1466                56.0616                28.5772

                    13                     14                     15
                     A                      A                      A
 Frequencies --   811.5211               883.7674               900.7036
 Red. masses --     3.3163                 3.5545                 4.8798
 Frc consts  --     1.2868                 1.6357                 2.3325
 IR Inten    --    10.6706                 2.4639                77.0134

                    16                     17                     18
                     A                      A                      A
 Frequencies --   920.6760               944.6035               968.6594
 Red. masses --     3.9393                 1.1971                 1.4738
 Frc consts  --     1.9674                 0.6293                 0.8147
 IR Inten    --    20.3285                 3.4506                 2.6821

                    19                     20                     21
                     A                      A                      A
 Frequencies --   995.0592              1104.9144              1143.8081
 Red. masses --     1.3827                 1.9852                 2.0791
 Frc consts  --     0.8066                 1.4279                 1.6026
 IR Inten    --    64.9961                15.5903                13.3898

                    22                     23                     24
                     A                      A                      A
 Frequencies --  1158.6458              1193.2391              1221.9834
 Red. masses --     1.3346                 1.8364                 2.5991
 Frc consts  --     1.0556                 1.5405                 2.2866
 IR Inten    --     0.7819                22.3007                19.9949

                    25                     26                     27
                     A                      A                      A
 Frequencies --  1318.7404              1350.2041              1404.4102
 Red. masses --     1.3688                 1.3870                 1.2299
 Frc consts  --     1.4025                 1.4898                 1.4292
 IR Inten    --    23.3167                 4.2983                13.9540

                    28                     29                     30
                     A                      A                      A
 Frequencies --  1425.0200              1471.8386              1488.8947
 Red. masses --     1.2256                 1.1292                 1.0514
 Frc consts  --     1.4663                 1.4412                 1.3733
 IR Inten    --     4.1892                81.5618                 8.9547

                    31                     32                     33
                     A                      A                      A
 Frequencies --  1492.9274              1500.7781              1514.6092
 Red. masses --     1.0435                 1.0432                 1.0485
 Frc consts  --     1.3704                 1.3843                 1.4172
 IR Inten    --     1.2399                 7.3050                12.8946

                    34                     35                     36
                     A                      A                      A
 Frequencies --  2739.7669              3027.8980              3031.0655
 Red. masses --     1.0649                 1.0384                 1.0416
 Frc consts  --     4.7097                 5.6093                 5.6380
 IR Inten    --     7.8043                10.0020                25.9768

                    37                     38                     39
                     A                      A                      A
 Frequencies --  3049.6559              3085.5672              3093.5787
 Red. masses --     1.0814                 1.1011                 1.0996
 Frc consts  --     5.9259                 6.1764                 6.2002
 IR Inten    --     9.3779                 0.4642                54.4522

                    40                     41                     42
                     A                      A                      A
 Frequencies --  3122.6134              3126.5034              3564.7890
 Red. masses --     1.1001                 1.0991                 1.0663
 Frc consts  --     6.3201                 6.3298                 7.9836
 IR Inten    --    11.6166                10.4945                19.6703

 - Thermochemistry -
 -------------------
 Temperature   298.150 Kelvin.  Pressure   1.00000 Atm.
 Atom  1 has atomic number  6 and mass  12.00000

 Molecular mass:   105.05517 amu.
 Principal axes and moments of inertia in atomic units:
                           1         2         3
     EIGENVALUES --   400.53468 987.487651319.15492
           X            0.39605   0.86825  -0.29882
           Y           -0.26704   0.42028   0.86721
           Z            0.87854  -0.26366   0.39830
 This molecule is an asymmetric top.
 Rotational symmetry number  1.
 Rotational temperatures (Kelvin)      0.21625     0.08771     0.06566
 Rotational constants (GHZ):           4.50583     1.82761     1.36810
    1 imaginary frequencies ignored.
 Zero-point vibrational energy     339613.7 (Joules/Mol)
                                   81.16962 (Kcal/Mol)
 Warning -- explicit consideration of  10 degrees of freedom as
           vibrations may cause significant error
 Vibrational temperatures:    118.84   281.65   318.23   334.01   409.31
          (Kelvin)            469.65   537.40   599.85   632.75   711.42
                              942.78  1167.60  1271.54  1295.91  1324.65
                             1359.07  1393.68  1431.67  1589.72  1645.68
                             1667.03  1716.80  1758.16  1897.37  1942.64
                             2020.63  2050.28  2117.64  2142.18  2147.99
                             2159.28  2179.18  3941.91  4356.46  4361.02
                             4387.77  4439.44  4450.96  4492.74  4498.34
                             5128.93

 Zero-point correction=                           0.129352 (Hartree/Particle)
 Thermal correction to Energy=                    0.137169
 Thermal correction to Enthalpy=                  0.138113
 Thermal correction to Gibbs Free Energy=         0.096902
 Sum of electronic and zero-point Energies=           -383.338676
 Sum of electronic and thermal Energies=              -383.330859
 Sum of electronic and thermal Enthalpies=            -383.329915
 Sum of electronic and thermal Free Energies=         -383.371126

                     E (Thermal)             CV                S
                      KCal/Mol        Cal/Mol-Kelvin    Cal/Mol-Kelvin
 Total                   86.075             28.585             86.735
 Electronic               0.000              0.000              1.377
 Translational            0.889              2.981             39.865
 Rotational               0.889              2.981             27.747
 Vibrational             84.297             22.624             17.745
 Vibration  1             0.600              1.961              3.828
 Vibration  2             0.636              1.846              2.173
 Vibration  3             0.648              1.809              1.949
 Vibration  4             0.653              1.792              1.862
 Vibration  5             0.683              1.702              1.507
 Vibration  6             0.710              1.623              1.278
 Vibration  7             0.745              1.526              1.065
 Vibration  8             0.780              1.433              0.903
 Vibration  9             0.800              1.383              0.827
 Vibration 10             0.850              1.262              0.672

 Normal termination of Gaussian 03 at Fri Aug 16 17:11:28 2019.
