 Gaussian 03, Revision D.01,
 Gaussian 03:  AM64L-G03RevD.01 13-Oct-2005

 ------------------------------------
 # opt=(addred) b3lyp/6-31g(d) nosymm
 ------------------------------------

 -------------------
 Title Card Required
 -------------------
 Symbolic Z-matrix:
 Charge =  0 Multiplicity = 2

 SCF Done:  E(UB+HF-LYP) =  -383.350753531     A.U. after   17 cycles
 SCF Done:  E(UB+HF-LYP) =  -383.350786535     A.U. after   12 cycles
 SCF Done:  E(UB+HF-LYP) =  -383.350782865     A.U. after   12 cycles
 SCF Done:  E(UB+HF-LYP) =  -383.350790655     A.U. after   10 cycles
 SCF Done:  E(UB+HF-LYP) =  -383.350792300     A.U. after   10 cycles
 SCF Done:  E(UB+HF-LYP) =  -383.350792751     A.U. after    8 cycles
 SCF Done:  E(UB+HF-LYP) =  -383.350792816     A.U. after    8 cycles
 SCF Done:  E(UB+HF-LYP) =  -383.350792895     A.U. after    8 cycles
 Optimization completed.
    -- Stationary point found.
 SCF Done:  E(UB+HF-LYP) =  -383.348846842     A.U. after   13 cycles
 SCF Done:  E(UB+HF-LYP) =  -383.350068015     A.U. after   13 cycles
 Optimization completed.
 SCF Done:  E(UB+HF-LYP) =  -383.350382265     A.U. after   13 cycles
 SCF Done:  E(UB+HF-LYP) =  -383.350398919     A.U. after   11 cycles
 SCF Done:  E(UB+HF-LYP) =  -383.350400470     A.U. after    9 cycles
 SCF Done:  E(UB+HF-LYP) =  -383.350400543     A.U. after    7 cycles
    -- Stationary point found.
 SCF Done:  E(UB+HF-LYP) =  -383.348903039     A.U. after   14 cycles
 SCF Done:  E(UB+HF-LYP) =  -383.349733791     A.U. after   13 cycles
 SCF Done:  E(UB+HF-LYP) =  -383.349743349     A.U. after   11 cycles
 SCF Done:  E(UB+HF-LYP) =  -383.349744535     A.U. after   10 cycles
 SCF Done:  E(UB+HF-LYP) =  -383.349744953     A.U. after   10 cycles
 SCF Done:  E(UB+HF-LYP) =  -383.349745016     A.U. after    8 cycles
 Optimization completed.
    -- Stationary point found.

                          Input orientation:
 ---------------------------------------------------------------------
 Center     Atomic     Atomic              Coordinates (Angstroms)
 Number     Number      Type              X           Y           Z
 ---------------------------------------------------------------------
    1          6             0       -2.927609    0.782016   -0.241785
    2          1             0       -3.807109    0.851825   -0.872011
    3          8             0       -2.675709    1.928395    0.468454
    4          1             0       -1.972383    1.711879    1.109866
    5          6             0       -2.443986   -0.511571    0.348347
    6          6             0       -3.096229   -0.837026    1.704902
    7          1             0       -3.032559    0.012550    2.391780
    8          1             0       -4.153478   -1.076270    1.553964
    9          1             0       -2.602794   -1.698472    2.166826
   10          6             0       -2.581467   -1.668182   -0.641046
   11          1             0       -1.986950   -1.472631   -1.536068
   12          1             0       -2.228856   -2.597350   -0.183102
   13          1             0       -3.629093   -1.800660   -0.934135
   14          8             0       -1.044345   -0.312905    0.730184
   15          8             0       -0.253563    0.035150   -0.439415
   16          1             0       -0.595112    0.926656   -0.651457
 ---------------------------------------------------------------------

 Alpha  occ. eigenvalues --  -19.20767 -19.20001 -19.19139 -10.25818 -10.23778
 Alpha  occ. eigenvalues --  -10.19162 -10.18138  -1.11507  -1.06455  -0.91397
 Alpha  occ. eigenvalues --   -0.78389  -0.70266  -0.68065  -0.59751  -0.53733
 Alpha  occ. eigenvalues --   -0.49800  -0.47047  -0.46353  -0.44560  -0.42248
 Alpha  occ. eigenvalues --   -0.40220  -0.39372  -0.38313  -0.38235  -0.35812
 Alpha  occ. eigenvalues --   -0.34651  -0.30324  -0.26976  -0.18038
 Alpha virt. eigenvalues --    0.02276   0.06101   0.10111   0.11196   0.13058
 Alpha virt. eigenvalues --    0.14619   0.15851   0.16081   0.18076   0.19532
 Alpha virt. eigenvalues --    0.20596   0.22048   0.24187   0.26799   0.28928

  Beta  occ. eigenvalues --  -19.20712 -19.19974 -19.18607 -10.25868 -10.22515
  Beta  occ. eigenvalues --  -10.19080 -10.18124  -1.11358  -1.05248  -0.91260
  Beta  occ. eigenvalues --   -0.77892  -0.70057  -0.66216  -0.59391  -0.53289
  Beta  occ. eigenvalues --   -0.49555  -0.46508  -0.45533  -0.44176  -0.41494
  Beta  occ. eigenvalues --   -0.39839  -0.39199  -0.38195  -0.35992  -0.34889
  Beta  occ. eigenvalues --   -0.34144  -0.30066  -0.26888
  Beta virt. eigenvalues --   -0.03934   0.02374   0.06471   0.10322   0.11547
  Beta virt. eigenvalues --    0.13313   0.14849   0.16241   0.16455   0.18482
  Beta virt. eigenvalues --    0.19609   0.21371   0.22223   0.24486   0.27932

 Mulliken atomic charges:
              1
     1  C    0.027218
     2  H    0.143977
     3  O   -0.572789
     4  H    0.415418
     5  C    0.256112
     6  C   -0.453078
     7  H    0.149452
     8  H    0.158891
     9  H    0.167984
    10  C   -0.454420
    11  H    0.174331
    12  H    0.157568
    13  H    0.142710
    14  O   -0.316863
    15  O   -0.404914
    16  H    0.408404
 Sum of Mulliken charges=   0.00000

 Dipole moment (field-independent basis, Debye):
    X=    -1.6601    Y=    -0.0926    Z=     0.1480  Tot=     1.6692
 Quadrupole moment (field-independent basis, Debye-Ang):
   XX=   -38.4030   YY=   -43.1856   ZZ=   -40.6386
   XY=     5.0368   XZ=    -0.3925   YZ=    -0.1151

 Normal termination of Gaussian 03 at Wed Jun  5 13:04:50 2013.
