 Gaussian 03, Revision D.01,
 Gaussian 03:  AM64L-G03RevD.01 13-Oct-2005

 ------------------------------------
 # opt=(addred) b3lyp/6-31g(d) nosymm
 ------------------------------------

 -------------------
 Title Card Required
 -------------------
 Symbolic Z-matrix:
 Charge =  0 Multiplicity = 2

 SCF Done:  E(UB+HF-LYP) =  -383.350753531     A.U. after   17 cycles
 Optimization completed.
    -- Stationary point found.
 SCF Done:  E(UB+HF-LYP) =  -383.349799484     A.U. after   14 cycles
 SCF Done:  E(UB+HF-LYP) =  -383.349450242     A.U. after   14 cycles
 SCF Done:  E(UB+HF-LYP) =  -383.349946654     A.U. after   14 cycles
 SCF Done:  E(UB+HF-LYP) =  -383.349951404     A.U. after   13 cycles
 SCF Done:  E(UB+HF-LYP) =  -383.350040436     A.U. after   12 cycles
 SCF Done:  E(UB+HF-LYP) =  -383.350045074     A.U. after   11 cycles
 SCF Done:  E(UB+HF-LYP) =  -383.350047045     A.U. after   10 cycles
 SCF Done:  E(UB+HF-LYP) =  -383.350048285     A.U. after   10 cycles
 SCF Done:  E(UB+HF-LYP) =  -383.350048654     A.U. after   10 cycles
 Optimization completed.
 SCF Done:  E(UB+HF-LYP) =  -383.349164646     A.U. after   11 cycles
 SCF Done:  E(UB+HF-LYP) =  -383.349165583     A.U. after    9 cycles
 SCF Done:  E(UB+HF-LYP) =  -383.350262267     A.U. after   14 cycles
 SCF Done:  E(UB+HF-LYP) =  -383.350481642     A.U. after   13 cycles
 SCF Done:  E(UB+HF-LYP) =  -383.350486824     A.U. after   11 cycles
 SCF Done:  E(UB+HF-LYP) =  -383.350487028     A.U. after    8 cycles
    -- Stationary point found.
 SCF Done:  E(UB+HF-LYP) =  -383.350524801     A.U. after   14 cycles
 SCF Done:  E(UB+HF-LYP) =  -383.350758833     A.U. after   13 cycles
 SCF Done:  E(UB+HF-LYP) =  -383.350763317     A.U. after   10 cycles
 SCF Done:  E(UB+HF-LYP) =  -383.350763460     A.U. after    8 cycles
 Optimization completed.
    -- Stationary point found.

                          Input orientation:
 ---------------------------------------------------------------------
 Center     Atomic     Atomic              Coordinates (Angstroms)
 Number     Number      Type              X           Y           Z
 ---------------------------------------------------------------------
    1          6             0       -3.317354    0.837873    0.464324
    2          1             0       -4.399056    0.819520    0.557719
    3          8             0       -2.870349    1.860083   -0.322310
    4          1             0       -1.895953    1.793666   -0.336628
    5          6             0       -2.535527   -0.441637    0.551354
    6          6             0       -3.187711   -1.394991    1.556990
    7          1             0       -3.275398   -0.914825    2.535499
    8          1             0       -4.188533   -1.671572    1.210205
    9          1             0       -2.592911   -2.307278    1.662210
   10          6             0       -2.332672   -1.114888   -0.818842
   11          1             0       -1.880125   -0.421549   -1.533973
   12          1             0       -1.693953   -2.001519   -0.723580
   13          1             0       -3.297219   -1.426543   -1.232445
   14          8             0       -1.222040   -0.215663    1.170063
   15          8             0       -0.460617    0.736549    0.369184
   16          1             0        0.118177    0.136180   -0.134465
 ---------------------------------------------------------------------

 Alpha  occ. eigenvalues --  -19.21974 -19.20769 -19.16379 -10.25447 -10.22126
 Alpha  occ. eigenvalues --  -10.18740 -10.18701  -1.12115  -1.04108  -0.92361
 Alpha  occ. eigenvalues --   -0.78205  -0.70189  -0.66759  -0.58511  -0.55157
 Alpha  occ. eigenvalues --   -0.48038  -0.47518  -0.46305  -0.43441  -0.41523
 Alpha  occ. eigenvalues --   -0.40665  -0.40019  -0.38605  -0.36801  -0.36168
 Alpha  occ. eigenvalues --   -0.34220  -0.29648  -0.27611  -0.16070
 Alpha virt. eigenvalues --    0.00853   0.06321   0.10707   0.11612   0.13145
 Alpha virt. eigenvalues --    0.14613   0.16087   0.17057   0.18110   0.18970
 Alpha virt. eigenvalues --    0.21866   0.22372   0.25151   0.27479   0.30095

  Beta  occ. eigenvalues --  -19.21980 -19.20686 -19.15857 -10.25496 -10.20852
  Beta  occ. eigenvalues --  -10.18729 -10.18629  -1.12021  -1.02873  -0.92230
  Beta  occ. eigenvalues --   -0.77784  -0.70055  -0.64821  -0.58166  -0.54974
  Beta  occ. eigenvalues --   -0.47636  -0.47011  -0.46152  -0.42906  -0.40502
  Beta  occ. eigenvalues --   -0.40336  -0.39838  -0.38473  -0.35933  -0.34624
  Beta  occ. eigenvalues --   -0.32807  -0.29360  -0.27305
  Beta virt. eigenvalues --   -0.01860   0.00954   0.06394   0.10857   0.11918
  Beta virt. eigenvalues --    0.13397   0.14829   0.16519   0.17220   0.18426
  Beta virt. eigenvalues --    0.19230   0.22087   0.22935   0.25569   0.29237

 Mulliken atomic charges:
              1
     1  C    0.070501
     2  H    0.129756
     3  O   -0.586361
     4  H    0.432266
     5  C    0.254765
     6  C   -0.471828
     7  H    0.173618
     8  H    0.156182
     9  H    0.159025
    10  C   -0.462210
    11  H    0.145970
    12  H    0.145855
    13  H    0.156661
    14  O   -0.297515
    15  O   -0.427962
    16  H    0.421278
 Sum of Mulliken charges=   0.00000

 Dipole moment (field-independent basis, Debye):
    X=     0.6537    Y=    -2.3816    Z=    -1.2871  Tot=     2.7849
 Quadrupole moment (field-independent basis, Debye-Ang):
   XX=   -41.0007   YY=   -45.4079   ZZ=   -44.3602
   XY=     7.2329   XZ=    -1.7906   YZ=    -0.7901

 Normal termination of Gaussian 03 at Thu Jul 11 21:11:24 2013.
