 Gaussian 03, Revision D.01,
 Gaussian 03:  AM64L-G03RevD.01 13-Oct-2005

 ------------------------------------
 # opt=(addred) b3lyp/6-31g(d) nosymm
 ------------------------------------

 -------------------
 Title Card Required
 -------------------
 Symbolic Z-matrix:
 Charge =  0 Multiplicity = 2

 SCF Done:  E(UB+HF-LYP) =  -383.350753531     A.U. after   17 cycles
 SCF Done:  E(UB+HF-LYP) =  -383.350772975     A.U. after   12 cycles
 SCF Done:  E(UB+HF-LYP) =  -383.350772185     A.U. after   12 cycles
 SCF Done:  E(UB+HF-LYP) =  -383.350776242     A.U. after   10 cycles
 SCF Done:  E(UB+HF-LYP) =  -383.350774225     A.U. after   10 cycles
 SCF Done:  E(UB+HF-LYP) =  -383.350777186     A.U. after    9 cycles
 SCF Done:  E(UB+HF-LYP) =  -383.350777549     A.U. after    9 cycles
 SCF Done:  E(UB+HF-LYP) =  -383.350777662     A.U. after    8 cycles
 SCF Done:  E(UB+HF-LYP) =  -383.350777723     A.U. after    8 cycles
 Optimization completed.
    -- Stationary point found.
 SCF Done:  E(UB+HF-LYP) =  -383.349032170     A.U. after   14 cycles
 Optimization completed.
 SCF Done:  E(UB+HF-LYP) =  -383.349672159     A.U. after   15 cycles
 SCF Done:  E(UB+HF-LYP) =  -383.349746054     A.U. after   14 cycles
 SCF Done:  E(UB+HF-LYP) =  -383.349753470     A.U. after   10 cycles
 SCF Done:  E(UB+HF-LYP) =  -383.349755452     A.U. after   11 cycles
 SCF Done:  E(UB+HF-LYP) =  -383.349755554     A.U. after    8 cycles
    -- Stationary point found.
 SCF Done:  E(UB+HF-LYP) =  -383.349348915     A.U. after   16 cycles
 SCF Done:  E(UB+HF-LYP) =  -383.350743551     A.U. after   15 cycles
 SCF Done:  E(UB+HF-LYP) =  -383.350817205     A.U. after   14 cycles
 SCF Done:  E(UB+HF-LYP) =  -383.350823488     A.U. after   11 cycles
 SCF Done:  E(UB+HF-LYP) =  -383.350824226     A.U. after    9 cycles
 Optimization completed.
    -- Stationary point found.

                          Input orientation:
 ---------------------------------------------------------------------
 Center     Atomic     Atomic              Coordinates (Angstroms)
 Number     Number      Type              X           Y           Z
 ---------------------------------------------------------------------
    1          6             0       -3.234287    0.810932    0.432770
    2          1             0       -4.269398    0.946308    0.136276
    3          8             0       -2.479989    1.940121    0.287000
    4          1             0       -1.580884    1.701150    0.587535
    5          6             0       -2.587306   -0.541657    0.368203
    6          6             0       -3.619859   -1.641017    0.636064
    7          1             0       -4.134536   -1.464942    1.585064
    8          1             0       -4.361325   -1.653050   -0.169062
    9          1             0       -3.132309   -2.619528    0.672864
   10          6             0       -1.832009   -0.782933   -0.952067
   11          1             0       -1.078769   -0.008166   -1.117994
   12          1             0       -1.331389   -1.757001   -0.931902
   13          1             0       -2.530862   -0.759251   -1.795043
   14          8             0       -1.649210   -0.742416    1.478119
   15          8             0       -0.600888    0.287684    1.410816
   16          1             0       -0.608221    0.557170    2.346661
 ---------------------------------------------------------------------

 Alpha  occ. eigenvalues --  -19.21979 -19.20691 -19.16490 -10.25353 -10.22142
 Alpha  occ. eigenvalues --  -10.18683 -10.17719  -1.11760  -1.04225  -0.92622
 Alpha  occ. eigenvalues --   -0.77765  -0.69706  -0.66668  -0.58378  -0.53551
 Alpha  occ. eigenvalues --   -0.50213  -0.47281  -0.45648  -0.41795  -0.40980
 Alpha  occ. eigenvalues --   -0.40477  -0.39929  -0.39161  -0.36537  -0.35907
 Alpha  occ. eigenvalues --   -0.34094  -0.31694  -0.25918  -0.16007
 Alpha virt. eigenvalues --    0.00390   0.06822   0.10618   0.12045   0.12947
 Alpha virt. eigenvalues --    0.15027   0.16157   0.17376   0.18604   0.19621
 Alpha virt. eigenvalues --    0.22286   0.22917   0.25250   0.27413   0.30246

  Beta  occ. eigenvalues --  -19.21986 -19.20598 -19.15960 -10.25407 -10.20879
  Beta  occ. eigenvalues --  -10.18673 -10.17648  -1.11654  -1.02981  -0.92484
  Beta  occ. eigenvalues --   -0.77322  -0.69579  -0.64698  -0.58022  -0.53417
  Beta  occ. eigenvalues --   -0.49929  -0.46829  -0.44997  -0.40959  -0.40593
  Beta  occ. eigenvalues --   -0.40107  -0.39794  -0.38887  -0.35761  -0.33975
  Beta  occ. eigenvalues --   -0.33153  -0.31234  -0.25653
  Beta virt. eigenvalues --   -0.01891   0.00488   0.06946   0.10724   0.12333
  Beta virt. eigenvalues --    0.13302   0.15214   0.16597   0.17474   0.18974
  Beta virt. eigenvalues --    0.19892   0.22494   0.23425   0.25741   0.29111

 Mulliken atomic charges:
              1
     1  C    0.051168
     2  H    0.132268
     3  O   -0.585042
     4  H    0.420749
     5  C    0.252342
     6  C   -0.472489
     7  H    0.165256
     8  H    0.157620
     9  H    0.164154
    10  C   -0.437980
    11  H    0.159738
    12  H    0.152744
    13  H    0.145831
    14  O   -0.304851
    15  O   -0.427483
    16  H    0.425974
 Sum of Mulliken charges=   0.00000

 Dipole moment (field-independent basis, Debye):
    X=    -0.0429    Y=    -0.7271    Z=     0.5834  Tot=     0.9332
 Quadrupole moment (field-independent basis, Debye-Ang):
   XX=   -40.5148   YY=   -45.3698   ZZ=   -38.7361
   XY=     5.9701   XZ=     1.4678   YZ=     2.9585

 Normal termination of Gaussian 03 at Fri Jul 12 02:41:24 2013.
