 Gaussian 03, Revision D.01,
 Gaussian 03:  AM64L-G03RevD.01 13-Oct-2005

 -------------------------------------
 # freq nosymm b3lyp/cbsb7 iop(7/33=1)
 -------------------------------------

 -------------------
 Title Card Required
 -------------------
 Symbolic Z-matrix:
 Charge =  0 Multiplicity = 2

                          Input orientation:
 ---------------------------------------------------------------------
 Center     Atomic     Atomic              Coordinates (Angstroms)
 Number     Number      Type              X           Y           Z
 ---------------------------------------------------------------------
    1          6             0       -3.224315    0.874923    0.578731
    2          1             0       -4.282375    0.927970    0.805866
    3          8             0       -2.796054    1.892568   -0.220160
    4          1             0       -1.834763    1.799677   -0.306231
    5          6             0       -2.526135   -0.452745    0.548470
    6          6             0       -3.156930   -1.408314    1.561562
    7          1             0       -3.156275   -0.959747    2.555970
    8          1             0       -4.187304   -1.626926    1.272952
    9          1             0       -2.599362   -2.345975    1.597220
   10          6             0       -2.471411   -1.067439   -0.859968
   11          1             0       -2.013014   -0.376855   -1.569361
   12          1             0       -1.901037   -2.000959   -0.848301
   13          1             0       -3.481555   -1.280388   -1.216908
   14          8             0       -1.154716   -0.336530    1.070661
   15          8             0       -0.402345    0.613620    0.262604
   16          1             0        0.156351    0.020524   -0.257803
 ---------------------------------------------------------------------

 SCF Done:  E(UB+HF-LYP) =  -383.473336622     A.U. after   17 cycles

 Alpha  occ. eigenvalues --  -19.18864 -19.18099 -19.13787 -10.24411 -10.21101
 Alpha  occ. eigenvalues --  -10.17303 -10.17237  -1.12864  -1.05113  -0.92972
 Alpha  occ. eigenvalues --   -0.78869  -0.70724  -0.67525  -0.59200  -0.55875
 Alpha  occ. eigenvalues --   -0.49000  -0.48266  -0.46867  -0.44293  -0.42369
 Alpha  occ. eigenvalues --   -0.41150  -0.40545  -0.39112  -0.37616  -0.36832
 Alpha  occ. eigenvalues --   -0.35097  -0.30505  -0.28255  -0.17137
 Alpha virt. eigenvalues --   -0.00612   0.03033   0.06366   0.07727   0.08772
 Alpha virt. eigenvalues --    0.09755   0.10768   0.11620   0.13144   0.14331
 Alpha virt. eigenvalues --    0.17135   0.18677   0.22624   0.23080   0.24415

  Beta  occ. eigenvalues --  -19.18871 -19.18004 -19.13246 -10.24460 -10.19796
  Beta  occ. eigenvalues --  -10.17292 -10.17168  -1.12759  -1.03898  -0.92830
  Beta  occ. eigenvalues --   -0.78442  -0.70593  -0.65599  -0.58853  -0.55695
  Beta  occ. eigenvalues --   -0.48585  -0.47723  -0.46699  -0.43761  -0.41233
  Beta  occ. eigenvalues --   -0.40813  -0.40349  -0.38960  -0.36540  -0.35552
  Beta  occ. eigenvalues --   -0.33974  -0.30141  -0.27982
  Beta virt. eigenvalues --   -0.03315  -0.00525   0.03094   0.06487   0.07888
  Beta virt. eigenvalues --    0.08946   0.09931   0.11052   0.11739   0.13328
  Beta virt. eigenvalues --    0.14471   0.17488   0.19046   0.22941   0.24204

 Mulliken atomic charges:
              1
     1  C    0.077985
     2  H    0.104995
     3  O   -0.327633
     4  H    0.255149
     5  C   -0.036743
     6  C   -0.264973
     7  H    0.128978
     8  H    0.114594
     9  H    0.117735
    10  C   -0.247986
    11  H    0.101806
    12  H    0.108951
    13  H    0.114036
    14  O   -0.240055
    15  O   -0.287471
    16  H    0.280631
 Sum of Mulliken charges=   0.00000

 Dipole moment (field-independent basis, Debye):
    X=     0.4017    Y=    -2.2517    Z=    -1.4027  Tot=     2.6831
 Quadrupole moment (field-independent basis, Debye-Ang):
   XX=   -40.6268   YY=   -46.1139   ZZ=   -44.6817
   XY=     6.6526   XZ=    -1.8875   YZ=    -0.6554

  Exact polarizability:  61.167   2.687  59.843  -6.057  -3.947  54.415
 Approx polarizability:  85.754   4.313  82.339  -7.110  -7.711  75.143

                     1                      2                      3
                     A                      A                      A
 Frequencies --   122.0612               172.6999               179.9531
 Red. masses --     3.0342                 3.2055                 1.1439
 Frc consts  --     0.0266                 0.0563                 0.0218
 IR Inten    --     4.8749                 1.4304                 0.4637

                     4                      5                      6
                     A                      A                      A
 Frequencies --   230.9884               247.6286               274.9055
 Red. masses --     1.3333                 1.7909                 3.8612
 Frc consts  --     0.0419                 0.0647                 0.1719
 IR Inten    --     4.4253                 2.4148                 4.4368

                     7                      8                      9
                     A                      A                      A
 Frequencies --   312.5566               338.8986               367.7815
 Red. masses --     1.1585                 2.1828                 2.1392
 Frc consts  --     0.0667                 0.1477                 0.1705
 IR Inten    --    85.3208                21.3184                 1.6262

                    10                     11                     12
                     A                      A                      A
 Frequencies --   394.4114               467.4006               528.1396
 Red. masses --     2.8985                 3.2839                 3.8111
 Frc consts  --     0.2657                 0.4227                 0.6263
 IR Inten    --    11.9310                 2.5930                10.4965

                    13                     14                     15
                     A                      A                      A
 Frequencies --   600.0296               646.6863               763.8601
 Red. masses --     2.9782                 1.1635                 5.1537
 Frc consts  --     0.6318                 0.2867                 1.7717
 IR Inten    --     1.8421               137.1754                 7.0941

                    16                     17                     18
                     A                      A                      A
 Frequencies --   849.8291               910.8505               926.3685
 Red. masses --     2.4495                10.1173                 1.9579
 Frc consts  --     1.0423                 4.9455                 0.9900
 IR Inten    --    22.0324                10.2696                 4.9674

                    19                     20                     21
                     A                      A                      A
 Frequencies --   936.6771              1016.0637              1156.9531
 Red. masses --     1.5521                 1.3234                 1.9523
 Frc consts  --     0.8023                 0.8050                 1.5397
 IR Inten    --     1.4047                 2.2859                34.4883

                    22                     23                     24
                     A                      A                      A
 Frequencies --  1186.5162              1216.9147              1253.1555
 Red. masses --     2.0285                 4.1138                 1.7658
 Frc consts  --     1.6825                 3.5893                 1.6338
 IR Inten    --   101.7752                50.1822                13.5173

                    25                     26                     27
                     A                      A                      A
 Frequencies --  1334.1070              1355.6599              1391.7019
 Red. masses --     1.1583                 2.0468                 1.3046
 Frc consts  --     1.2146                 2.2163                 1.4887
 IR Inten    --    45.8895                10.9544                16.9365

                    28                     29                     30
                     A                      A                      A
 Frequencies --  1409.7480              1459.5954              1478.4972
 Red. masses --     1.2406                 1.3091                 1.0532
 Frc consts  --     1.4526                 1.6432                 1.3564
 IR Inten    --     3.5991                72.9880                 2.9820

                    31                     32                     33
                     A                      A                      A
 Frequencies --  1486.8958              1497.4606              1509.4666
 Red. masses --     1.0466                 1.0808                 1.0695
 Frc consts  --     1.3633                 1.4280                 1.4357
 IR Inten    --     1.5438                17.5391                13.4649

                    34                     35                     36
                     A                      A                      A
 Frequencies --  3030.0194              3045.0723              3099.1295
 Red. masses --     1.0369                 1.0342                 1.1006
 Frc consts  --     5.6086                 5.6502                 6.2281
 IR Inten    --    18.4793                11.2186                14.7718

                    37                     38                     39
                     A                      A                      A
 Frequencies --  3114.3264              3116.2430              3123.5936
 Red. masses --     1.1008                 1.1021                 1.1031
 Frc consts  --     6.2905                 6.3055                 6.3414
 IR Inten    --    19.1078                20.5282                15.6204

                    40                     41                     42
                     A                      A                      A
 Frequencies --  3183.5823              3712.4009              3773.3718
 Red. masses --     1.0889                 1.0650                 1.0687
 Frc consts  --     6.5023                 8.6482                 8.9655
 IR Inten    --    18.8606               136.0018                40.1072

 - Thermochemistry -
 -------------------
 Temperature   298.150 Kelvin.  Pressure   1.00000 Atm.
 Atom  1 has atomic number  6 and mass  12.00000

 Molecular mass:   105.05517 amu.
 Principal axes and moments of inertia in atomic units:
                           1         2         3
     EIGENVALUES --   604.76442 723.12916 931.49154
           X            0.33306   0.94276   0.01642
           Y            0.88558  -0.31874   0.33786
           Z           -0.32375   0.09799   0.94105
 This molecule is an asymmetric top.
 Rotational symmetry number  1.
 Warning -- assumption of classical behavior for rotation
           may cause significant error
 Rotational temperatures (Kelvin)      0.14322     0.11978     0.09298
 Rotational constants (GHZ):           2.98421     2.49574     1.93747
 Zero-point vibrational energy     342264.8 (Joules/Mol)
                                   81.80324 (Kcal/Mol)
 Warning -- explicit consideration of  13 degrees of freedom as
           vibrations may cause significant error
 Vibrational temperatures:    175.62   248.48   258.91   332.34   356.28
          (Kelvin)            395.53   449.70   487.60   529.15   567.47
                              672.48   759.87   863.31   930.44  1099.02
                             1222.71  1310.51  1332.84  1347.67  1461.89
                             1664.60  1707.13  1750.87  1803.01  1919.48
                             1950.49  2002.35  2028.31  2100.03  2127.23
                             2139.31  2154.51  2171.78  4359.52  4381.17
                             4458.95  4480.82  4483.57  4494.15  4580.46
                             5341.31  5429.03

 Zero-point correction=                           0.130362 (Hartree/Particle)
 Thermal correction to Energy=                    0.139189
 Thermal correction to Enthalpy=                  0.140133
 Thermal correction to Gibbs Free Energy=         0.097507
 Sum of electronic and zero-point Energies=           -383.342975
 Sum of electronic and thermal Energies=              -383.334147
 Sum of electronic and thermal Enthalpies=            -383.333203
 Sum of electronic and thermal Free Energies=         -383.375830

                     E (Thermal)             CV                S
                      KCal/Mol        Cal/Mol-Kelvin    Cal/Mol-Kelvin
 Total                   87.343             32.383             89.716
 Electronic               0.000              0.000              1.377
 Translational            0.889              2.981             39.865
 Rotational               0.889              2.981             27.501
 Vibrational             85.565             26.421             20.972
 Vibration  1             0.610              1.931              3.067
 Vibration  2             0.626              1.876              2.406
 Vibration  3             0.629              1.867              2.329
 Vibration  4             0.653              1.794              1.871
 Vibration  5             0.661              1.767              1.747
 Vibration  6             0.677              1.720              1.565
 Vibration  7             0.701              1.650              1.349
 Vibration  8             0.719              1.598              1.217
 Vibration  9             0.740              1.538              1.089
 Vibration 10             0.761              1.482              0.983
 Vibration 11             0.825              1.322              0.745
 Vibration 12             0.883              1.188              0.591
 Vibration 13             0.958              1.032              0.450

 Optimization completed.
    -- Stationary point found.
 Normal termination of Gaussian 03 at Mon Jun 10 09:56:08 2013.
