 Gaussian 03, Revision D.01,
 Gaussian 03:  AM64L-G03RevD.01 13-Oct-2005

 -------------------------------------------------
 # opt=(calcfc,ts,noeigentest) cbs-qb3 nosymm freq
 -------------------------------------------------

 -------------------
 Title Card Required
 -------------------
 Symbolic Z-matrix:
 Charge =  0 Multiplicity = 2

 SCF Done:  E(UB+HF-LYP) =  -383.443807151     A.U. after   22 cycles
 SCF Done:  E(UB+HF-LYP) =  -383.444573112     A.U. after   18 cycles
 SCF Done:  E(UB+HF-LYP) =  -383.445337380     A.U. after   18 cycles
 SCF Done:  E(UB+HF-LYP) =  -383.446133137     A.U. after   18 cycles
 SCF Done:  E(UB+HF-LYP) =  -383.446814581     A.U. after   18 cycles
 SCF Done:  E(UB+HF-LYP) =  -383.447033755     A.U. after   19 cycles
 SCF Done:  E(UB+HF-LYP) =  -383.447075095     A.U. after   16 cycles
 SCF Done:  E(UB+HF-LYP) =  -383.446985591     A.U. after   17 cycles
 SCF Done:  E(UB+HF-LYP) =  -383.447087328     A.U. after   17 cycles
 SCF Done:  E(UB+HF-LYP) =  -383.447092884     A.U. after   14 cycles
 SCF Done:  E(UB+HF-LYP) =  -383.446902738     A.U. after   15 cycles
 SCF Done:  E(UB+HF-LYP) =  -383.447084119     A.U. after   16 cycles
 SCF Done:  E(UB+HF-LYP) =  -383.447085199     A.U. after   16 cycles
 SCF Done:  E(UB+HF-LYP) =  -383.447095802     A.U. after   15 cycles
 SCF Done:  E(UB+HF-LYP) =  -383.447096275     A.U. after   12 cycles
 SCF Done:  E(UB+HF-LYP) =  -383.447096378     A.U. after   11 cycles
 Optimization completed.
    -- Stationary point found.
 Normal termination of Gaussian 03 at Sun Jun  9 11:48:02 2013.

 -------------------------------------------------------
 #N Geom=AllCheck Guess=Read SCRF=Check B3LYP/CBSB7 Freq
 -------------------------------------------------------

 Title Card Required
 -------------------
 Redundant internal coordinates taken from checkpoint file:
 TS2cbsqb3.chk
 Charge =  0 Multiplicity = 2

 SCF Done:  E(UB+HF-LYP) =  -383.447096378     A.U. after    1 cycles

  Exact polarizability:  55.297  -0.596  56.331   3.584  -1.230  85.675
 Approx polarizability:  74.442   2.403  75.740   6.044   0.519 150.167

 ******    1 imaginary frequencies (negative Signs) ******

                     1                      2                      3
                     A                      A                      A
 Frequencies --  -658.1613                93.8671               150.0026
 Red. masses --    12.4495                 4.3014                 2.7584
 Frc consts  --     3.1774                 0.0223                 0.0366
 IR Inten    --   212.1503                 0.8423                 5.5999

                     4                      5                      6
                     A                      A                      A
 Frequencies --   197.6971               210.2341               257.6303
 Red. masses --     1.1766                 2.9599                 1.2691
 Frc consts  --     0.0271                 0.0771                 0.0496
 IR Inten    --     1.5122                 8.3703                92.1401

                     7                      8                      9
                     A                      A                      A
 Frequencies --   278.6129               330.7701               367.7716
 Red. masses --     3.4303                 2.5400                 2.6554
 Frc consts  --     0.1569                 0.1637                 0.2116
 IR Inten    --    11.5101                 7.4534                 0.5339

                    10                     11                     12
                     A                      A                      A
 Frequencies --   389.9104               459.3133               477.4735
 Red. masses --     3.0045                 2.0968                 1.5705
 Frc consts  --     0.2691                 0.2606                 0.2110
 IR Inten    --    14.8754                 7.0127                 5.3978

                    13                     14                     15
                     A                      A                      A
 Frequencies --   568.3724               591.1279               761.2733
 Red. masses --     1.5239                 1.7082                 1.3212
 Frc consts  --     0.2900                 0.3517                 0.4511
 IR Inten    --    30.8769                62.5423                43.1746

                    16                     17                     18
                     A                      A                      A
 Frequencies --   771.0664               873.5914               891.7252
 Red. masses --     3.6083                 2.4660                 1.6656
 Frc consts  --     1.2640                 1.1088                 0.7803
 IR Inten    --    24.0904                10.8610                 5.9323

                    19                     20                     21
                     A                      A                      A
 Frequencies --   966.4837              1000.5249              1046.8149
 Red. masses --     1.3841                 1.4783                 1.2386
 Frc consts  --     0.7617                 0.8719                 0.7997
 IR Inten    --     1.0174                13.4625                57.9120

                    22                     23                     24
                     A                      A                      A
 Frequencies --  1093.4620              1116.2482              1235.4272
 Red. masses --     3.6236                 2.2323                 1.9223
 Frc consts  --     2.5527                 1.6388                 1.7287
 IR Inten    --    98.1228                14.3943                27.1840

                    25                     26                     27
                     A                      A                      A
 Frequencies --  1241.6784              1312.5512              1393.4717
 Red. masses --     1.5628                 2.5797                 1.2333
 Frc consts  --     1.4196                 2.6185                 1.4110
 IR Inten    --     7.3933                 7.6343                 2.7471

                    28                     29                     30
                     A                      A                      A
 Frequencies --  1408.6022              1445.9213              1453.4321
 Red. masses --     1.3616                 1.2266                 1.2579
 Frc consts  --     1.5917                 1.5109                 1.5656
 IR Inten    --    15.7621                45.0043                33.6485

                    31                     32                     33
                     A                      A                      A
 Frequencies --  1483.9374              1498.2361              1499.1897
 Red. masses --     1.0929                 1.0543                 1.0790
 Frc consts  --     1.4180                 1.3944                 1.4288
 IR Inten    --     5.2955                 4.1133                 6.6328

                    34                     35                     36
                     A                      A                      A
 Frequencies --  3013.1095              3034.0016              3078.1081
 Red. masses --     1.0635                 1.0369                 1.0998
 Frc consts  --     5.6889                 5.6238                 6.1396
 IR Inten    --    35.5580                17.9238                18.0856

                    37                     38                     39
                     A                      A                      A
 Frequencies --  3101.4921              3115.7589              3157.1548
 Red. masses --     1.1005                 1.1025                 1.0490
 Frc consts  --     6.2373                 6.3061                 6.1608
 IR Inten    --    21.8165                13.2388                 1.9621

                    40                     41                     42
                     A                      A                      A
 Frequencies --  3280.7966              3742.8980              3800.1327
 Red. masses --     1.1218                 1.0652                 1.0679
 Frc consts  --     7.1141                 8.7920                 9.0861
 IR Inten    --     0.7816                49.5132                64.6741

 - Thermochemistry -
 -------------------
 Temperature   298.150 Kelvin.  Pressure   1.00000 Atm.
 Atom  1 has atomic number  6 and mass  12.00000

 Molecular mass:   105.05517 amu.
 Principal axes and moments of inertia in atomic units:
                           1         2         3
     EIGENVALUES --   629.60614 724.32551 907.86166
           X            0.70432  -0.61773   0.34977
           Y           -0.45529  -0.01506   0.89022
           Z            0.54464   0.78625   0.29186
 This molecule is an asymmetric top.
 Rotational symmetry number  1.
 Warning -- assumption of classical behavior for rotation
           may cause significant error
 Rotational temperatures (Kelvin)      0.13757     0.11958     0.09540
 Rotational constants (GHZ):           2.86646     2.49162     1.98790
    1 imaginary frequencies ignored.
 Zero-point vibrational energy     336090.1 (Joules/Mol)
                                   80.32746 (Kcal/Mol)
 Warning -- explicit consideration of  13 degrees of freedom as
           vibrations may cause significant error
 Vibrational temperatures:    135.05   215.82   284.44   302.48   370.67
          (Kelvin)            400.86   475.90   529.14   560.99   660.85
                              686.98   817.76   850.50  1095.30  1109.39
                             1256.90  1282.99  1390.55  1439.53  1506.13
                             1573.25  1606.03  1777.50  1786.50  1888.47
                             2004.89  2026.66  2080.36  2091.16  2135.05
                             2155.62  2157.00  4335.19  4365.25  4428.71
                             4462.35  4482.88  4542.44  4720.33  5385.19
                             5467.54

 Zero-point correction=                           0.128010 (Hartree/Particle)
 Thermal correction to Energy=                    0.136682
 Thermal correction to Enthalpy=                  0.137627
 Thermal correction to Gibbs Free Energy=         0.095055
 Sum of electronic and zero-point Energies=           -383.319086
 Sum of electronic and thermal Energies=              -383.310414
 Sum of electronic and thermal Enthalpies=            -383.309470
 Sum of electronic and thermal Free Energies=         -383.352042

                     E (Thermal)             CV                S
                      KCal/Mol        Cal/Mol-Kelvin    Cal/Mol-Kelvin
 Total                   85.770             31.646             89.600
 Electronic               0.000              0.000              1.377
 Translational            0.889              2.981             39.865
 Rotational               0.889              2.981             27.517
 Vibrational             83.992             25.684             20.840
 Vibration  1             0.603              1.954              3.578
 Vibration  2             0.618              1.903              2.672
 Vibration  3             0.637              1.843              2.154
 Vibration  4             0.642              1.825              2.042
 Vibration  5             0.667              1.750              1.678
 Vibration  6             0.679              1.713              1.542
 Vibration  7             0.713              1.614              1.256
 Vibration  8             0.740              1.539              1.089
 Vibration  9             0.758              1.492              1.000
 Vibration 10             0.817              1.340              0.768
 Vibration 11             0.834              1.300              0.717
 Vibration 12             0.924              1.100              0.507
 Vibration 13             0.949              1.051              0.465

 Optimization completed.
    -- Stationary point found.
 Normal termination of Gaussian 03 at Sun Jun  9 11:57:45 2013.

 ---------------------------------------------------------
 #N Geom=AllCheck Guess=Read SCRF=Check CCSD(T)/6-31+G(d')
 ---------------------------------------------------------

 Title Card Required
 -------------------
 Redundant internal coordinates taken from checkpoint file:
 TS2cbsqb3.chk
 Charge =  0 Multiplicity = 2

 SCF Done:  E(UHF) =  -381.121053800     A.U. after   24 cycles
 CCSD(T)= -0.38229192966D+03
 4\CCSD=-382.2532873\CCSD(T)=-382.2919297\S2=1.274453\S2-1=1.186329\S2A
 Normal termination of Gaussian 03 at Sun Jun  9 15:28:50 2013.

 ---------------------------------------------------
 #N Geom=AllCheck Guess=Read SCRF=Check MP4SDQ/CBSB4
 ---------------------------------------------------

 Title Card Required
 -------------------
 Redundant internal coordinates taken from checkpoint file:
 TS2cbsqb3.chk
 Charge =  0 Multiplicity = 2

 SCF Done:  E(UHF) =  -381.147782555     A.U. after   20 cycles
 Normal termination of Gaussian 03 at Sun Jun  9 15:38:47 2013.

 ----------------------------------------------------------------------
 #N Geom=AllCheck Guess=Read SCRF=Check MP2/CBSB3 CBSExtrap=(NMin=10,Mi
 nPop)
 ----------------------------------------------------------------------

 Title Card Required
 -------------------
 Redundant internal coordinates taken from checkpoint file:
 TS2cbsqb3.chk
 Charge =  0 Multiplicity = 2

                          Input orientation:
 ---------------------------------------------------------------------
 Center     Atomic     Atomic              Coordinates (Angstroms)
 Number     Number      Type              X           Y           Z
 ---------------------------------------------------------------------
    1          6             0       -1.789819    0.645809    0.438659
    2          6             0       -1.462091    1.573639    1.545672
    3          1             0       -2.167750    2.358922    1.778183
    4          1             0       -0.481389    1.569655    2.002662
    5          6             0       -1.033754   -0.671634    0.388550
    6          1             0       -1.448842   -1.390174    1.101663
    7          1             0       -1.105920   -1.094170   -0.615590
    8          1             0        0.021835   -0.517524    0.621250
    9          8             0       -1.236463    1.633627   -0.417354
   10          8             0       -1.828734    1.392973   -2.007560
   11          1             0       -1.268266    2.089338   -2.377201
   12          6             0       -3.302492    0.472653    0.193966
   13          1             0       -3.758235    0.014815    1.075873
   14          1             0       -3.433681   -0.209536   -0.654629
   15          8             0       -3.948110    1.705012   -0.029818
   16          1             0       -3.539348    2.053978   -0.835046
 ---------------------------------------------------------------------

 SCF Done:  E(UHF) =  -381.259712997     A.U. after   20 cycles
 E2 =    -0.1325351055D+01 EUMP2 =    -0.38258506405176D+03
 E2(CBS)=      -1.461190 CBS-Int=       0.041904 OIii=      11.356055

 Alpha  occ. eigenvalues --  -20.62740 -20.59334 -20.54966 -11.29734 -11.27487
 Alpha  occ. eigenvalues --  -11.24953 -11.22465  -1.41954  -1.35799  -1.28959
 Alpha  occ. eigenvalues --   -1.04256  -0.95435  -0.92480  -0.77308  -0.71495
 Alpha  occ. eigenvalues --   -0.68293  -0.66790  -0.64748  -0.61215  -0.60605
 Alpha  occ. eigenvalues --   -0.56653  -0.56211  -0.55365  -0.53833  -0.52013
 Alpha  occ. eigenvalues --   -0.49843  -0.45830  -0.43670  -0.37515
 Alpha virt. eigenvalues --    0.04064   0.05201   0.05912   0.06147   0.07662
 Alpha virt. eigenvalues --    0.08019   0.08781   0.08959   0.11257   0.12864
 Alpha virt. eigenvalues --    0.14139   0.15425   0.16399   0.16464   0.17152

  Beta  occ. eigenvalues --  -20.61753 -20.59291 -20.54970 -11.29900 -11.27472
  Beta  occ. eigenvalues --  -11.22958 -11.22445  -1.42011  -1.35421  -1.24134
  Beta  occ. eigenvalues --   -1.04751  -0.93142  -0.90342  -0.76715  -0.70441
  Beta  occ. eigenvalues --   -0.67121  -0.66252  -0.64055  -0.61252  -0.58971
  Beta  occ. eigenvalues --   -0.56032  -0.55097  -0.54682  -0.53010  -0.50176
  Beta  occ. eigenvalues --   -0.49994  -0.45314  -0.43053
  Beta virt. eigenvalues --    0.03968   0.05080   0.05928   0.06101   0.07638
  Beta virt. eigenvalues --    0.07997   0.08424   0.08936   0.09152   0.11319
  Beta virt. eigenvalues --    0.14138   0.15198   0.15346   0.16523   0.16627

 Mulliken atomic charges:
              1
     1  C    0.426588
     2  C   -0.272386
     3  H    0.125684
     4  H    0.121961
     5  C   -0.353301
     6  H    0.059898
     7  H    0.089113
     8  H    0.079997
     9  O   -0.167293
    10  O   -0.309467
    11  H    0.292935
    12  C   -0.218815
    13  H    0.065445
    14  H    0.118106
    15  O   -0.351286
    16  H    0.292822
 Sum of Mulliken charges=   0.00000

 Dipole moment (field-independent basis, Debye):
    X=     1.7671    Y=    -0.7579    Z=    -0.1859  Tot=     1.9317
 Quadrupole moment (field-independent basis, Debye-Ang):
   XX=   -54.6085   YY=   -42.3558   ZZ=   -38.5806
   XY=     5.8487   XZ=     0.5341   YZ=    -3.8779

    1 imaginary frequencies ignored.
 Normal termination of Gaussian 03 at Sun Jun  9 15:58:00 2013.
