 Gaussian 03, Revision D.01,
 Gaussian 03:  AM64L-G03RevD.01 13-Oct-2005

 -------------------------------------
 # freq nosymm b3lyp/cbsb7 iop(7/33=1)
 -------------------------------------

 -------------------
 Title Card Required
 -------------------
 Symbolic Z-matrix:
 Charge =  0 Multiplicity = 2

                          Input orientation:
 ---------------------------------------------------------------------
 Center     Atomic     Atomic              Coordinates (Angstroms)
 Number     Number      Type              X           Y           Z
 ---------------------------------------------------------------------
    1          6             0       -1.789819    0.645809    0.438659
    2          6             0       -1.462091    1.573639    1.545672
    3          1             0       -2.167750    2.358922    1.778183
    4          1             0       -0.481389    1.569655    2.002662
    5          6             0       -1.033754   -0.671634    0.388550
    6          1             0       -1.448842   -1.390174    1.101663
    7          1             0       -1.105920   -1.094170   -0.615590
    8          1             0        0.021835   -0.517524    0.621250
    9          8             0       -1.236463    1.633627   -0.417354
   10          8             0       -1.828734    1.392973   -2.007560
   11          1             0       -1.268266    2.089338   -2.377201
   12          6             0       -3.302492    0.472653    0.193966
   13          1             0       -3.758235    0.014815    1.075873
   14          1             0       -3.433681   -0.209536   -0.654629
   15          8             0       -3.948110    1.705012   -0.029818
   16          1             0       -3.539348    2.053978   -0.835046
 ---------------------------------------------------------------------

 SCF Done:  E(UB+HF-LYP) =  -383.447096378     A.U. after   23 cycles

 Alpha  occ. eigenvalues --  -19.17053 -19.14626 -19.10521 -10.24329 -10.22084
 Alpha  occ. eigenvalues --  -10.21596 -10.16996  -1.05792  -1.01263  -0.95558
 Alpha  occ. eigenvalues --   -0.77854  -0.71120  -0.68368  -0.56850  -0.52270
 Alpha  occ. eigenvalues --   -0.49560  -0.47589  -0.46160  -0.44046  -0.42618
 Alpha  occ. eigenvalues --   -0.40808  -0.39733  -0.37710  -0.36071  -0.33765
 Alpha  occ. eigenvalues --   -0.33131  -0.27547  -0.27010  -0.23798
 Alpha virt. eigenvalues --   -0.06078   0.03939   0.05784   0.07140   0.08720
 Alpha virt. eigenvalues --    0.09615   0.10330   0.11728   0.12627   0.14842
 Alpha virt. eigenvalues --    0.17150   0.18835   0.22165   0.23978   0.25275

  Beta  occ. eigenvalues --  -19.17175 -19.13411 -19.10511 -10.24393 -10.21566
  Beta  occ. eigenvalues --  -10.21051 -10.16993  -1.05257  -1.01103  -0.93423
  Beta  occ. eigenvalues --   -0.77467  -0.69537  -0.67981  -0.56472  -0.51774
  Beta  occ. eigenvalues --   -0.49131  -0.47278  -0.45496  -0.43585  -0.42208
  Beta  occ. eigenvalues --   -0.40515  -0.39519  -0.37483  -0.34336  -0.33460
  Beta  occ. eigenvalues --   -0.32637  -0.27025  -0.26134
  Beta virt. eigenvalues --   -0.11569  -0.02227   0.04159   0.06114   0.07467
  Beta virt. eigenvalues --    0.08874   0.09757   0.10460   0.11872   0.12695
  Beta virt. eigenvalues --    0.14900   0.17274   0.18949   0.22305   0.24142

 Mulliken atomic charges:
              1
     1  C   -0.022395
     2  C   -0.109026
     3  H    0.150683
     4  H    0.136502
     5  C   -0.228760
     6  H    0.106605
     7  H    0.128868
     8  H    0.106489
     9  O   -0.292895
    10  O   -0.346479
    11  H    0.257469
    12  C    0.043920
    13  H    0.109437
    14  H    0.114365
    15  O   -0.398469
    16  H    0.243687
 Sum of Mulliken charges=   0.00000

 Dipole moment (field-independent basis, Debye):
    X=     1.7237    Y=    -0.4893    Z=     0.9131  Tot=     2.0111
 Quadrupole moment (field-independent basis, Debye-Ang):
   XX=   -53.4802   YY=   -41.4867   ZZ=   -38.8778
   XY=     5.0838   XZ=    -1.2186   YZ=    -1.9303

  Exact polarizability:  55.297  -0.596  56.331   3.584  -1.230  85.675
 Approx polarizability:  74.442   2.403  75.740   6.044   0.519 150.167

 ******    1 imaginary frequencies (negative Signs) ******

                     1                      2                      3
                     A                      A                      A
 Frequencies --  -658.1602                93.8667               150.0019
 Red. masses --    12.4496                 4.3013                 2.7583
 Frc consts  --     3.1774                 0.0223                 0.0366
 IR Inten    --   212.1502                 0.8425                 5.6000

                     4                      5                      6
                     A                      A                      A
 Frequencies --   197.6932               210.2328               257.6225
 Red. masses --     1.1766                 2.9601                 1.2691
 Frc consts  --     0.0271                 0.0771                 0.0496
 IR Inten    --     1.5122                 8.3729                92.1409

                     7                      8                      9
                     A                      A                      A
 Frequencies --   278.6123               330.7698               367.7714
 Red. masses --     3.4305                 2.5400                 2.6554
 Frc consts  --     0.1569                 0.1637                 0.2116
 IR Inten    --    11.5061                 7.4534                 0.5339

                    10                     11                     12
                     A                      A                      A
 Frequencies --   389.9106               459.3129               477.4741
 Red. masses --     3.0046                 2.0969                 1.5705
 Frc consts  --     0.2691                 0.2606                 0.2110
 IR Inten    --    14.8754                 7.0125                 5.3976

                    13                     14                     15
                     A                      A                      A
 Frequencies --   568.3740               591.1294               761.2717
 Red. masses --     1.5240                 1.7081                 1.3212
 Frc consts  --     0.2901                 0.3517                 0.4511
 IR Inten    --    30.8704                62.5493                43.1751

                    16                     17                     18
                     A                      A                      A
 Frequencies --   771.0655               873.5896               891.7245
 Red. masses --     3.6083                 2.4660                 1.6656
 Frc consts  --     1.2640                 1.1088                 0.7803
 IR Inten    --    24.0905                10.8610                 5.9322

                    19                     20                     21
                     A                      A                      A
 Frequencies --   966.4832              1000.5243              1046.8137
 Red. masses --     1.3841                 1.4783                 1.2386
 Frc consts  --     0.7617                 0.8719                 0.7997
 IR Inten    --     1.0174                13.4623                57.9120

                    22                     23                     24
                     A                      A                      A
 Frequencies --  1093.4623              1116.2473              1235.4265
 Red. masses --     3.6235                 2.2323                 1.9223
 Frc consts  --     2.5526                 1.6388                 1.7287
 IR Inten    --    98.1218                14.3952                27.1845

                    25                     26                     27
                     A                      A                      A
 Frequencies --  1241.6778              1312.5506              1393.4714
 Red. masses --     1.5628                 2.5797                 1.2333
 Frc consts  --     1.4196                 2.6185                 1.4110
 IR Inten    --     7.3926                 7.6343                 2.7471

                    28                     29                     30
                     A                      A                      A
 Frequencies --  1408.6012              1445.9213              1453.4319
 Red. masses --     1.3616                 1.2266                 1.2579
 Frc consts  --     1.5917                 1.5109                 1.5656
 IR Inten    --    15.7619                45.0036                33.6499

                    31                     32                     33
                     A                      A                      A
 Frequencies --  1483.9370              1498.2361              1499.1894
 Red. masses --     1.0929                 1.0543                 1.0790
 Frc consts  --     1.4180                 1.3944                 1.4288
 IR Inten    --     5.2955                 4.1129                 6.6333

                    34                     35                     36
                     A                      A                      A
 Frequencies --  3013.1104              3034.0043              3078.1140
 Red. masses --     1.0635                 1.0369                 1.0998
 Frc consts  --     5.6889                 5.6238                 6.1396
 IR Inten    --    35.5582                17.9230                18.0852

                    37                     38                     39
                     A                      A                      A
 Frequencies --  3101.4958              3115.7586              3157.1545
 Red. masses --     1.1005                 1.1025                 1.0490
 Frc consts  --     6.2373                 6.3061                 6.1608
 IR Inten    --    21.8165                13.2396                 1.9622

                    40                     41                     42
                     A                      A                      A
 Frequencies --  3280.7973              3742.8935              3800.1372
 Red. masses --     1.1218                 1.0652                 1.0679
 Frc consts  --     7.1141                 8.7920                 9.0861
 IR Inten    --     0.7815                49.5128                64.6747

 - Thermochemistry -
 -------------------
 Temperature   298.150 Kelvin.  Pressure   1.00000 Atm.
 Atom  1 has atomic number  6 and mass  12.00000

 Molecular mass:   105.05517 amu.
 Principal axes and moments of inertia in atomic units:
                           1         2         3
     EIGENVALUES --   629.60635 724.32556 907.86173
           X            0.70432  -0.61773   0.34977
           Y           -0.45529  -0.01506   0.89022
           Z            0.54464   0.78625   0.29186
 This molecule is an asymmetric top.
 Rotational symmetry number  1.
 Warning -- assumption of classical behavior for rotation
           may cause significant error
 Rotational temperatures (Kelvin)      0.13757     0.11958     0.09540
 Rotational constants (GHZ):           2.86646     2.49162     1.98790
    1 imaginary frequencies ignored.
 Zero-point vibrational energy     336090.0 (Joules/Mol)
                                   80.32744 (Kcal/Mol)
 Warning -- explicit consideration of  13 degrees of freedom as
           vibrations may cause significant error
 Vibrational temperatures:    135.05   215.82   284.44   302.48   370.66
          (Kelvin)            400.86   475.90   529.14   560.99   660.85
                              686.98   817.76   850.50  1095.30  1109.39
                             1256.90  1282.99  1390.55  1439.53  1506.13
                             1573.25  1606.03  1777.50  1786.50  1888.47
                             2004.89  2026.66  2080.36  2091.16  2135.05
                             2155.62  2157.00  4335.19  4365.25  4428.71
                             4462.36  4482.88  4542.44  4720.33  5385.18
                             5467.54

 Zero-point correction=                           0.128010 (Hartree/Particle)
 Thermal correction to Energy=                    0.136682
 Thermal correction to Enthalpy=                  0.137627
 Thermal correction to Gibbs Free Energy=         0.095055
 Sum of electronic and zero-point Energies=           -383.319086
 Sum of electronic and thermal Energies=              -383.310414
 Sum of electronic and thermal Enthalpies=            -383.309470
 Sum of electronic and thermal Free Energies=         -383.352042

                     E (Thermal)             CV                S
                      KCal/Mol        Cal/Mol-Kelvin    Cal/Mol-Kelvin
 Total                   85.770             31.646             89.600
 Electronic               0.000              0.000              1.377
 Translational            0.889              2.981             39.865
 Rotational               0.889              2.981             27.517
 Vibrational             83.992             25.684             20.840
 Vibration  1             0.603              1.954              3.578
 Vibration  2             0.618              1.903              2.672
 Vibration  3             0.637              1.843              2.154
 Vibration  4             0.642              1.825              2.042
 Vibration  5             0.667              1.750              1.678
 Vibration  6             0.679              1.713              1.542
 Vibration  7             0.713              1.614              1.256
 Vibration  8             0.740              1.539              1.089
 Vibration  9             0.758              1.492              1.000
 Vibration 10             0.817              1.340              0.768
 Vibration 11             0.834              1.300              0.717
 Vibration 12             0.924              1.100              0.507
 Vibration 13             0.949              1.051              0.465

 Optimization completed.
    -- Stationary point found.
 Normal termination of Gaussian 03 at Mon Jul 21 03:19:11 2014.
