 Gaussian 03, Revision D.01,
 Gaussian 03:  AM64L-G03RevD.01 13-Oct-2005

 -------------------------------------
 # freq nosymm b3lyp/cbsb7 iop(7/33=1)
 -------------------------------------

 -------------------
 Title Card Required
 -------------------
 Symbolic Z-matrix:
 Charge =  0 Multiplicity = 1

                          Input orientation:
 ---------------------------------------------------------------------
 Center     Atomic     Atomic              Coordinates (Angstroms)
 Number     Number      Type              X           Y           Z
 ---------------------------------------------------------------------
    1          6             0       -0.073112   -2.364783    0.285048
    2          6             0       -1.523926   -1.968456    0.154402
    3          1             0       -1.713686   -0.968173    0.546517
    4          1             0       -1.831089   -1.987724   -0.895069
    5          1             0       -2.157274   -2.667905    0.707467
    6          6             0        0.256763   -3.793701   -0.078605
    7          1             0       -0.000186   -3.989664   -1.124277
    8          1             0        1.322757   -3.990684    0.049161
    9          1             0       -0.305288   -4.493897    0.546305
   10          6             0        0.844762   -1.595023    1.146080
   11          1             0        1.708957   -2.084044    1.591510
   12          8             0        0.887469   -1.388696   -0.249306
   13          8             0        0.468515   -0.521604    1.933684
   14          1             0       -0.030441    0.085168    1.375395
 ---------------------------------------------------------------------

 SCF Done:  E(RB+HF-LYP) =  -307.741319059     A.U. after   13 cycles

 Alpha  occ. eigenvalues --  -19.13402 -19.12901 -10.27255 -10.23454 -10.17609
 Alpha  occ. eigenvalues --  -10.17280  -1.09855  -1.02313  -0.78080  -0.71097
 Alpha  occ. eigenvalues --   -0.66137  -0.58601  -0.51992  -0.50243  -0.46252
 Alpha  occ. eigenvalues --   -0.43852  -0.41640  -0.40378  -0.40177  -0.37474
 Alpha  occ. eigenvalues --   -0.37061  -0.34546  -0.28938  -0.26235
 Alpha virt. eigenvalues --    0.03381   0.05020   0.07413   0.07767   0.09592
 Alpha virt. eigenvalues --    0.11604   0.13325   0.13872   0.14572   0.15418
 Alpha virt. eigenvalues --    0.17625   0.20732   0.25283   0.26227   0.29949

 Mulliken atomic charges:
              1
     1  C   -0.114591
     2  C   -0.197532
     3  H    0.077630
     4  H    0.119691
     5  H    0.113076
     6  C   -0.218985
     7  H    0.113565
     8  H    0.108572
     9  H    0.111173
    10  C    0.228307
    11  H    0.116397
    12  O   -0.335341
    13  O   -0.356138
    14  H    0.234175
 Sum of Mulliken charges=   0.00000

 Dipole moment (field-independent basis, Debye):
    X=    -1.4248    Y=    -1.1186    Z=    -0.1034  Tot=     1.8144
 Quadrupole moment (field-independent basis, Debye-Ang):
   XX=   -36.3861   YY=   -30.1642   ZZ=   -41.2201
   XY=     0.2966   XZ=     0.6334   YZ=    -0.9471

  Exact polarizability:  51.889   0.207  54.310   4.231   5.633  46.781
 Approx polarizability:  69.875   3.073  72.130   3.446   3.748  70.184

                     1                      2                      3
                     A                      A                      A
 Frequencies --   146.6135               179.4867               201.6632
 Red. masses --     1.0269                 1.3138                 1.5571
 Frc consts  --     0.0130                 0.0249                 0.0373
 IR Inten    --     3.9174                14.6417                21.8597

                     4                      5                      6
                     A                      A                      A
 Frequencies --   271.2438               288.5805               367.8009
 Red. masses --     1.4999                 3.0532                 2.1789
 Frc consts  --     0.0650                 0.1498                 0.1737
 IR Inten    --    46.1984                12.5924                 8.3566

                     7                      8                      9
                     A                      A                      A
 Frequencies --   400.7444               530.6709               555.7791
 Red. masses --     2.7127                 3.4041                 4.2900
 Frc consts  --     0.2567                 0.5648                 0.7807
 IR Inten    --    14.3076                 6.3932                30.0207

                    10                     11                     12
                     A                      A                      A
 Frequencies --   690.1716               791.7833               911.5009
 Red. masses --     4.9793                 3.2471                 3.2132
 Frc consts  --     1.3975                 1.1994                 1.5729
 IR Inten    --     8.8535                37.4004                21.9228

                    13                     14                     15
                     A                      A                      A
 Frequencies --   954.9897               999.1616              1039.8387
 Red. masses --     1.4033                 1.4199                 1.8958
 Frc consts  --     0.7540                 0.8352                 1.2077
 IR Inten    --     1.1688                13.1942                48.6693

                    16                     17                     18
                     A                      A                      A
 Frequencies --  1120.7904              1146.4082              1161.5617
 Red. masses --     1.7090                 1.8461                 2.2562
 Frc consts  --     1.2648                 1.4295                 1.7936
 IR Inten    --    50.4897               125.0652                65.7675

                    19                     20                     21
                     A                      A                      A
 Frequencies --  1256.3764              1302.2743              1369.0843
 Red. masses --     2.1936                 1.5970                 1.6303
 Frc consts  --     2.0401                 1.5957                 1.8004
 IR Inten    --     5.8890                 8.9144                 4.0011

                    22                     23                     24
                     A                      A                      A
 Frequencies --  1412.6510              1425.7124              1467.0920
 Red. masses --     1.3476                 1.2816                 1.4665
 Frc consts  --     1.5844                 1.5349                 1.8598
 IR Inten    --    15.7692                 7.7448                36.3212

                    25                     26                     27
                     A                      A                      A
 Frequencies --  1476.2359              1485.0007              1500.1152
 Red. masses --     1.0620                 1.0490                 1.0528
 Frc consts  --     1.3635                 1.3629                 1.3959
 IR Inten    --     0.9998                 3.6407                16.4167

                    28                     29                     30
                     A                      A                      A
 Frequencies --  1518.5424              3025.7530              3033.8234
 Red. masses --     1.4211                 1.0360                 1.0364
 Frc consts  --     1.9308                 5.5885                 5.6205
 IR Inten    --    49.3764                18.6909                19.7954

                    31                     32                     33
                     A                      A                      A
 Frequencies --  3084.8644              3092.5001              3108.5409
 Red. masses --     1.1013                 1.1012                 1.1007
 Frc consts  --     6.1747                 6.2049                 6.2665
 IR Inten    --     8.8540                32.6324                12.2798

                    34                     35                     36
                     A                      A                      A
 Frequencies --  3110.7248              3118.3322              3821.9362
 Red. masses --     1.1001                 1.0901                 1.0649
 Frc consts  --     6.2722                 6.2453                 9.1653
 IR Inten    --    29.3904                41.5684                35.4569

 - Thermochemistry -
 -------------------
 Temperature   298.150 Kelvin.  Pressure   1.00000 Atm.
 Atom  1 has atomic number  6 and mass  12.00000

 Molecular mass:    88.05243 amu.
 Principal axes and moments of inertia in atomic units:
                           1         2         3
     EIGENVALUES --   321.79354 596.32087 720.15942
           X            0.26545   0.95781  -0.11020
           Y            0.80309  -0.28291  -0.52441
           Z            0.53346  -0.05071   0.84430
 This molecule is an asymmetric top.
 Rotational symmetry number  1.
 Rotational temperatures (Kelvin)      0.26916     0.14525     0.12027
 Rotational constants (GHZ):           5.60838     3.02646     2.50603
 Zero-point vibrational energy     307251.0 (Joules/Mol)
                                   73.43474 (Kcal/Mol)
 Warning -- explicit consideration of   9 degrees of freedom as
           vibrations may cause significant error
 Vibrational temperatures:    210.94   258.24   290.15   390.26   415.20
          (Kelvin)            529.18   576.58   763.52   799.64   993.00
                             1139.20  1311.44  1374.02  1437.57  1496.09
                             1612.57  1649.42  1671.23  1807.64  1873.68
                             1969.80  2032.49  2051.28  2110.82  2123.97
                             2136.58  2158.33  2184.84  4353.38  4364.99
                             4438.43  4449.41  4472.49  4475.63  4486.58
                             5498.91

 Zero-point correction=                           0.117026 (Hartree/Particle)
 Thermal correction to Energy=                    0.124087
 Thermal correction to Enthalpy=                  0.125032
 Thermal correction to Gibbs Free Energy=         0.086805
 Sum of electronic and zero-point Energies=           -307.624293
 Sum of electronic and thermal Energies=              -307.617232
 Sum of electronic and thermal Enthalpies=            -307.616287
 Sum of electronic and thermal Free Energies=         -307.654514

                     E (Thermal)             CV                S
                      KCal/Mol        Cal/Mol-Kelvin    Cal/Mol-Kelvin
 Total                   77.866             25.211             80.454
 Electronic               0.000              0.000              0.000
 Translational            0.889              2.981             39.339
 Rotational               0.889              2.981             26.427
 Vibrational             76.089             19.249             14.688
 Vibration  1             0.617              1.906              2.716
 Vibration  2             0.629              1.867              2.334
 Vibration  3             0.639              1.838              2.118
 Vibration  4             0.675              1.726              1.588
 Vibration  5             0.685              1.695              1.482
 Vibration  6             0.740              1.538              1.089
 Vibration  7             0.767              1.469              0.960
 Vibration  8             0.886              1.182              0.586
 Vibration  9             0.911              1.127              0.532

 Optimization completed.
    -- Stationary point found.
 Normal termination of Gaussian 03 at Tue Jul 15 17:35:17 2014.
