 Gaussian 03, Revision D.01,
 Gaussian 03:  AM64L-G03RevD.01 13-Oct-2005

 -------------------------------------
 # freq nosymm b3lyp/cbsb7 iop(7/33=1)
 -------------------------------------

 -------------------
 Title Card Required
 -------------------
 Symbolic Z-matrix:
 Charge =  0 Multiplicity = 2

                          Input orientation:
 ---------------------------------------------------------------------
 Center     Atomic     Atomic              Coordinates (Angstroms)
 Number     Number      Type              X           Y           Z
 ---------------------------------------------------------------------
    1          6             0       -1.809856    2.927823    0.019417
    2          1             0       -1.594070    3.624671    0.847709
    3          1             0       -1.443141    3.399596   -0.895719
    4          1             0       -2.903559    2.865022   -0.045187
    5          6             0       -1.196634    1.587693    0.241614
    6          1             0       -0.223422    1.380732   -0.190451
    7          6             0       -1.740859    0.651791    1.265936
    8          1             0       -1.316566   -0.350926    1.171480
    9          1             0       -1.529748    0.994271    2.293667
   10          1             0       -2.832790    0.566482    1.194813
 ---------------------------------------------------------------------

 SCF Done:  E(UB+HF-LYP) =  -118.514166356     A.U. after   13 cycles

 Alpha  occ. eigenvalues --  -10.17127 -10.16185 -10.16184  -0.78270  -0.69233
 Alpha  occ. eigenvalues --   -0.57219  -0.45413  -0.43106  -0.41127  -0.38773
 Alpha  occ. eigenvalues --   -0.35763  -0.35058  -0.18516
 Alpha virt. eigenvalues --    0.04789   0.07650   0.08149   0.10895   0.12782
 Alpha virt. eigenvalues --    0.13172   0.14322   0.21353   0.26895   0.27226
 Alpha virt. eigenvalues --    0.29669   0.34299   0.35472   0.41212   0.42084

  Beta  occ. eigenvalues --  -10.16273 -10.16272 -10.15710  -0.76562  -0.68992
  Beta  occ. eigenvalues --   -0.55091  -0.44941  -0.41376  -0.40551  -0.38119
  Beta  occ. eigenvalues --   -0.35392  -0.34521
  Beta virt. eigenvalues --   -0.03917   0.04920   0.07969   0.08267   0.11277
  Beta virt. eigenvalues --    0.13186   0.13320   0.14526   0.22285   0.27353
  Beta virt. eigenvalues --    0.27499   0.30123   0.34674   0.36523   0.42673

 Mulliken atomic charges:
              1
     1  C   -0.289342
     2  H    0.109789
     3  H    0.112226
     4  H    0.108210
     5  C   -0.192648
     6  H    0.110850
     7  C   -0.289392
     8  H    0.112123
     9  H    0.109654
    10  H    0.108529
 Sum of Mulliken charges=   0.00000

 Dipole moment (field-independent basis, Debye):
    X=     0.0123    Y=     0.0933    Z=     0.1686  Tot=     0.1931
 Quadrupole moment (field-independent basis, Debye-Ang):
   XX=   -20.8835   YY=   -20.7189   ZZ=   -21.2969
   XY=    -0.3211   XZ=    -0.6169   YZ=    -0.0176

  Exact polarizability:  33.571  -1.407  39.211  -2.175  -4.066  34.164
 Approx polarizability:  45.077  -1.542  47.263  -2.690  -2.203  44.627

                     1                      2                      3
                     A                      A                      A
 Frequencies --   105.7634               120.2062               355.4476
 Red. masses --     1.0324                 1.1341                 1.6540
 Frc consts  --     0.0068                 0.0097                 0.1231
 IR Inten    --     0.0823                 0.4808                12.9753

                     4                      5                      6
                     A                      A                      A
 Frequencies --   395.9755               883.1343               939.1088
 Red. masses --     1.5548                 2.6416                 1.2109
 Frc consts  --     0.1436                 1.2139                 0.6292
 IR Inten    --    13.4314                 2.0372                 0.0118

                     7                      8                      9
                     A                      A                      A
 Frequencies --   944.9654              1029.0083              1146.5908
 Red. masses --     1.1880                 1.4429                 2.0545
 Frc consts  --     0.6250                 0.9002                 1.5914
 IR Inten    --     1.2264                 0.1048                 0.2548

                    10                     11                     12
                     A                      A                      A
 Frequencies --  1177.5388              1368.3615              1409.1002
 Red. masses --     1.8808                 1.3357                 1.4574
 Frc consts  --     1.5365                 1.4736                 1.7050
 IR Inten    --     2.7030                 2.6544                 7.9189

                    13                     14                     15
                     A                      A                      A
 Frequencies --  1413.6856              1469.3876              1478.5626
 Red. masses --     1.2027                 1.0761                 1.0432
 Frc consts  --     1.4161                 1.3689                 1.3437
 IR Inten    --     4.6597                 1.1222                 2.0647

                    16                     17                     18
                     A                      A                      A
 Frequencies --  1480.2301              1492.0566              2931.2714
 Red. masses --     1.0505                 1.0490                 1.0604
 Frc consts  --     1.3561                 1.3760                 5.3684
 IR Inten    --    14.6189                 4.4677                26.3440

                    19                     20                     21
                     A                      A                      A
 Frequencies --  2935.6981              3010.7824              3013.0774
 Red. masses --     1.0625                 1.0747                 1.0725
 Frc consts  --     5.3951                 5.7400                 5.7365
 IR Inten    --    62.8961                15.8121                50.0300

                    22                     23                     24
                     A                      A                      A
 Frequencies --  3081.2979              3082.1963              3162.4705
 Red. masses --     1.0945                 1.0953                 1.0887
 Frc consts  --     6.1226                 6.1308                 6.4150
 IR Inten    --    21.2076                31.4490                30.9473

 - Thermochemistry -
 -------------------
 Temperature   298.150 Kelvin.  Pressure   1.00000 Atm.
 Atom  1 has atomic number  6 and mass  12.00000

 Molecular mass:    43.05478 amu.
 Principal axes and moments of inertia in atomic units:
                           1         2         3
     EIGENVALUES --    48.13656 217.13848 242.84595
           X           -0.02652   0.81699   0.57604
           Y            0.87677  -0.25778   0.40598
           Z           -0.48017  -0.51582   0.70948
 This molecule is an asymmetric top.
 Rotational symmetry number  1.
 Rotational temperatures (Kelvin)      1.79934     0.39889     0.35666
 Rotational constants (GHZ):          37.49211     8.31148     7.43163
 Zero-point vibrational energy     229838.0 (Joules/Mol)
                                   54.93261 (Kcal/Mol)
 Warning -- explicit consideration of   4 degrees of freedom as
           vibrations may cause significant error
 Vibrational temperatures:    152.17   172.95   511.41   569.72  1270.63
          (Kelvin)           1351.17  1359.59  1480.51  1649.69  1694.21
                             1968.76  2027.38  2033.98  2114.12  2127.32
                             2129.72  2146.73  4217.44  4223.81  4331.84
                             4335.14  4433.30  4434.59  4550.08

 Zero-point correction=                           0.087541 (Hartree/Particle)
 Thermal correction to Energy=                    0.092728
 Thermal correction to Enthalpy=                  0.093672
 Thermal correction to Gibbs Free Energy=         0.060283
 Sum of electronic and zero-point Energies=           -118.426626
 Sum of electronic and thermal Energies=              -118.421439
 Sum of electronic and thermal Enthalpies=            -118.420494
 Sum of electronic and thermal Free Energies=         -118.453883

                     E (Thermal)             CV                S
                      KCal/Mol        Cal/Mol-Kelvin    Cal/Mol-Kelvin
 Total                   58.188             15.748             70.273
 Electronic               0.000              0.000              1.377
 Translational            0.889              2.981             37.206
 Rotational               0.889              2.981             22.456
 Vibrational             56.410              9.787              9.233
 Vibration  1             0.605              1.945              3.345
 Vibration  2             0.609              1.932              3.097
 Vibration  3             0.731              1.564              1.142
 Vibration  4             0.763              1.479              0.978

 Optimization completed.
    -- Stationary point found.
 Normal termination of Gaussian 03 at Tue Jul 15 17:47:27 2014.
