 Gaussian 03, Revision D.01,
 Gaussian 03:  AM64L-G03RevD.01 13-Oct-2005

 -------------------------------------
 # freq nosymm b3lyp/cbsb7 iop(7/33=1)
 -------------------------------------

 -------------------
 Title Card Required
 -------------------
 Symbolic Z-matrix:
 Charge =  0 Multiplicity = 2

                          Input orientation:
 ---------------------------------------------------------------------
 Center     Atomic     Atomic              Coordinates (Angstroms)
 Number     Number      Type              X           Y           Z
 ---------------------------------------------------------------------
    1          8             0        0.157965    1.203566   -0.414676
    2          1             0       -0.193790    0.461422    0.096922
    3          8             0        1.820421    0.707221   -0.171270
    4          6             0        2.485092    0.834394   -1.406823
    5          6             0        3.714755    0.437189   -0.690143
    6          1             0        2.133296    0.123655   -2.160246
    7          1             0        2.477615    1.857529   -1.789741
    8          6             0        4.168592   -0.979690   -0.665298
    9          1             0        4.927138   -1.149230   -1.444151
   10          1             0        4.623437   -1.247849    0.292295
   11          1             0        3.340630   -1.662027   -0.865914
   12          6             0        4.459430    1.475777    0.095708
   13          1             0        5.399720    1.711413   -0.425825
   14          1             0        4.749988    1.044275    1.067921
   15          8             0        3.764627    2.691494    0.248135
   16          1             0        2.866950    2.455156    0.525907
 ---------------------------------------------------------------------

 SCF Done:  E(UB+HF-LYP) =  -383.448701133     A.U. after   23 cycles

 Alpha  occ. eigenvalues --  -19.15578 -19.12339 -19.11541 -10.23658 -10.23577
 Alpha  occ. eigenvalues --  -10.22711 -10.19417  -1.04244  -1.02184  -0.94065
 Alpha  occ. eigenvalues --   -0.81317  -0.70824  -0.68130  -0.58291  -0.52167
 Alpha  occ. eigenvalues --   -0.49758  -0.48856  -0.44622  -0.44128  -0.43607
 Alpha  occ. eigenvalues --   -0.42938  -0.41258  -0.38825  -0.35516  -0.34599
 Alpha  occ. eigenvalues --   -0.30270  -0.28654  -0.26249  -0.21917
 Alpha virt. eigenvalues --   -0.05527   0.03067   0.05668   0.06580   0.08030
 Alpha virt. eigenvalues --    0.09089   0.09433   0.10743   0.11464   0.14003
 Alpha virt. eigenvalues --    0.15658   0.17131   0.19410   0.25277   0.27708

  Beta  occ. eigenvalues --  -19.15761 -19.11535 -19.10924 -10.23633 -10.22778
  Beta  occ. eigenvalues --  -10.22741 -10.19470  -1.04006  -1.01930  -0.91271
  Beta  occ. eigenvalues --   -0.80198  -0.70581  -0.67955  -0.57485  -0.51917
  Beta  occ. eigenvalues --   -0.49490  -0.47727  -0.44004  -0.43798  -0.42892
  Beta  occ. eigenvalues --   -0.42519  -0.41084  -0.38382  -0.34437  -0.32967
  Beta  occ. eigenvalues --   -0.29633  -0.28317  -0.25447
  Beta virt. eigenvalues --   -0.10457  -0.01364   0.03166   0.05945   0.06648
  Beta virt. eigenvalues --    0.08130   0.09351   0.09661   0.10836   0.11571
  Beta virt. eigenvalues --    0.14205   0.16211   0.17553   0.19929   0.25580

 Mulliken atomic charges:
              1
     1  O   -0.339864
     2  H    0.246667
     3  O   -0.351307
     4  C    0.120696
     5  C   -0.223129
     6  H    0.100868
     7  H    0.122758
     8  C   -0.246849
     9  H    0.132028
    10  H    0.120808
    11  H    0.133578
    12  C    0.099019
    13  H    0.122183
    14  H    0.108287
    15  O   -0.397888
    16  H    0.252143
 Sum of Mulliken charges=   0.00000

 Dipole moment (field-independent basis, Debye):
    X=     2.1049    Y=    -3.3047    Z=    -0.4426  Tot=     3.9430
 Quadrupole moment (field-independent basis, Debye-Ang):
   XX=   -29.7937   YY=   -51.0473   ZZ=   -40.6773
   XY=    -7.5479   XZ=    -4.5414   YZ=     0.3993

  Exact polarizability: 107.152 -10.314  59.280  -0.183   2.440  50.205
 Approx polarizability: 167.711 -19.506  80.140  -6.613   1.495  71.853

 ******    1 imaginary frequencies (negative Signs) ******

                     1                      2                      3
                     A                      A                      A
 Frequencies --  -629.1721                50.3057                68.9089
 Red. masses --    12.0360                 1.0721                 5.0806
 Frc consts  --     2.8072                 0.0016                 0.0142
 IR Inten    --   244.3004                 0.2207                 0.1422

                     4                      5                      6
                     A                      A                      A
 Frequencies --   126.3082               153.3671               175.8366
 Red. masses --     2.2493                 1.2984                 2.4348
 Frc consts  --     0.0211                 0.0180                 0.0444
 IR Inten    --     1.7995                85.2394                23.4231

                     7                      8                      9
                     A                      A                      A
 Frequencies --   216.2518               257.9328               326.2268
 Red. masses --     4.7879                 4.9672                 3.4265
 Frc consts  --     0.1319                 0.1947                 0.2149
 IR Inten    --    19.1614                 1.2717                16.3614

                    10                     11                     12
                     A                      A                      A
 Frequencies --   376.4294               414.3777               524.0559
 Red. masses --     2.5624                 3.4435                 3.2828
 Frc consts  --     0.2139                 0.3484                 0.5312
 IR Inten    --     0.7964                 8.2642                 5.1407

                    13                     14                     15
                     A                      A                      A
 Frequencies --   604.4681               769.7420               895.4816
 Red. masses --     1.1260                 3.4751                 1.4636
 Frc consts  --     0.2424                 1.2131                 0.6915
 IR Inten    --   148.0282                 2.5023                 9.5932

                    16                     17                     18
                     A                      A                      A
 Frequencies --   940.8089               974.4165               999.9237
 Red. masses --     1.2768                 1.4393                 1.5326
 Frc consts  --     0.6658                 0.8052                 0.9028
 IR Inten    --    82.0092                17.7487                 3.2222

                    19                     20                     21
                     A                      A                      A
 Frequencies --  1015.9669              1068.4263              1098.3768
 Red. masses --     1.5619                 3.5386                 4.6877
 Frc consts  --     0.9499                 2.3800                 3.3320
 IR Inten    --     1.9175                24.7363                82.0850

                    22                     23                     24
                     A                      A                      A
 Frequencies --  1176.9940              1210.8987              1264.1571
 Red. masses --     1.2337                 1.0928                 1.8132
 Frc consts  --     1.0070                 0.9441                 1.7072
 IR Inten    --     3.8068                17.5564                 4.4199

                    25                     26                     27
                     A                      A                      A
 Frequencies --  1291.3028              1344.4384              1397.4740
 Red. masses --     1.6599                 2.0684                 1.2622
 Frc consts  --     1.6308                 2.2027                 1.4523
 IR Inten    --     2.4492                 5.5531                 3.5873

                    28                     29                     30
                     A                      A                      A
 Frequencies --  1406.4894              1436.2052              1468.9374
 Red. masses --     1.5751                 1.2724                 1.0658
 Frc consts  --     1.8358                 1.5463                 1.3550
 IR Inten    --    18.8194                47.0128                 1.9989

                    31                     32                     33
                     A                      A                      A
 Frequencies --  1481.3475              1486.4084              1526.1917
 Red. masses --     1.0899                 1.0794                 1.1385
 Frc consts  --     1.4091                 1.4052                 1.5624
 IR Inten    --     9.0509                11.7204                 3.5412

                    34                     35                     36
                     A                      A                      A
 Frequencies --  2944.8618              2980.1691              2984.1325
 Red. masses --     1.0691                 1.0743                 1.0672
 Frc consts  --     5.4625                 5.6214                 5.5994
 IR Inten    --    59.3936                 5.3580                33.9379

                    37                     38                     39
                     A                      A                      A
 Frequencies --  3029.9354              3059.2474              3088.9350
 Red. masses --     1.0541                 1.0782                 1.1118
 Frc consts  --     5.7015                 5.9456                 6.2503
 IR Inten    --    46.8737                17.0926                24.8032

                    40                     41                     42
                     A                      A                      A
 Frequencies --  3110.1803              3728.7288              3791.2697
 Red. masses --     1.1011                 1.0655                 1.0679
 Frc consts  --     6.2754                 8.7283                 9.0440
 IR Inten    --    11.8655                39.5888                50.1058

 - Thermochemistry -
 -------------------
 Temperature   298.150 Kelvin.  Pressure   1.00000 Atm.
 Atom  1 has atomic number  8 and mass  15.99491

 Molecular mass:   105.05517 amu.
 Principal axes and moments of inertia in atomic units:
                           1         2         3
     EIGENVALUES --   554.58451 931.603281327.74983
           X            0.99431   0.06515  -0.08424
           Y           -0.08891   0.94329  -0.31985
           Z            0.05862   0.32552   0.94372
 This molecule is an asymmetric top.
 Rotational symmetry number  1.
 Warning -- assumption of classical behavior for rotation
           may cause significant error
 Rotational temperatures (Kelvin)      0.15618     0.09297     0.06523
 Rotational constants (GHZ):           3.25422     1.93724     1.35925
    1 imaginary frequencies ignored.
 Zero-point vibrational energy     336544.9 (Joules/Mol)
                                   80.43617 (Kcal/Mol)
 Warning -- explicit consideration of  12 degrees of freedom as
           vibrations may cause significant error
 Vibrational temperatures:     72.38    99.14   181.73   220.66   252.99
          (Kelvin)            311.14   371.11   469.37   541.60   596.20
                              754.00   869.69  1107.49  1288.40  1353.61
                             1401.97  1438.67  1461.75  1537.23  1580.32
                             1693.43  1742.21  1818.84  1857.89  1934.34
                             2010.65  2023.62  2066.38  2113.47  2131.33
                             2138.61  2195.85  4236.99  4287.79  4293.50
                             4359.40  4401.57  4444.28  4474.85  5364.80
                             5454.78

 Zero-point correction=                           0.128183 (Hartree/Particle)
 Thermal correction to Energy=                    0.137425
 Thermal correction to Enthalpy=                  0.138369
 Thermal correction to Gibbs Free Energy=         0.093048
 Sum of electronic and zero-point Energies=           -383.320518
 Sum of electronic and thermal Energies=              -383.311276
 Sum of electronic and thermal Enthalpies=            -383.310332
 Sum of electronic and thermal Free Energies=         -383.355654

                     E (Thermal)             CV                S
                      KCal/Mol        Cal/Mol-Kelvin    Cal/Mol-Kelvin
 Total                   86.236             30.841             95.388
 Electronic               0.000              0.000              1.377
 Translational            0.889              2.981             39.865
 Rotational               0.889              2.981             28.019
 Vibrational             84.458             24.879             26.126
 Vibration  1             0.595              1.977              4.805
 Vibration  2             0.598              1.969              4.184
 Vibration  3             0.611              1.927              3.002
 Vibration  4             0.619              1.899              2.630
 Vibration  5             0.628              1.872              2.372
 Vibration  6             0.645              1.816              1.990
 Vibration  7             0.667              1.749              1.676
 Vibration  8             0.710              1.623              1.279
 Vibration  9             0.747              1.520              1.053
 Vibration 10             0.778              1.439              0.911
 Vibration 11             0.879              1.197              0.601
 Vibration 12             0.963              1.022              0.442

 Optimization completed.
    -- Stationary point found.
 Normal termination of Gaussian 03 at Tue Jun 18 11:20:19 2013.
