 Gaussian 03, Revision D.01,
 Gaussian 03:  AM64L-G03RevD.01 13-Oct-2005

 -------------------------------------
 # freq nosymm b3lyp/cbsb7 iop(7/33=1)
 -------------------------------------

 --------------
 s00010102 freq
 --------------
 Symbolic Z-matrix:
 Charge =  0 Multiplicity = 2

                          Input orientation:
 ---------------------------------------------------------------------
 Center     Atomic     Atomic              Coordinates (Angstroms)
 Number     Number      Type              X           Y           Z
 ---------------------------------------------------------------------
    1          8             0        0.000000    0.000000    0.000000
    2          1             0        0.000000    0.000000    0.975208
 ---------------------------------------------------------------------

 SCF Done:  E(UB+HF-LYP) =  -75.7545273514     A.U. after   30 cycles

 Alpha  occ. eigenvalues --  -19.17856  -1.01090  -0.47044  -0.40875  -0.33536
 Alpha virt. eigenvalues --    0.03358   0.37068   0.70003   0.74368   0.75853
 Alpha virt. eigenvalues --    0.99686   1.30992   1.32771   1.90892   2.33246
 Alpha virt. eigenvalues --    2.74992   2.75046   3.03543   3.09047   3.66974

  Beta  occ. eigenvalues --  -19.15297  -0.94073  -0.44417  -0.30876
  Beta virt. eigenvalues --   -0.16094   0.04095   0.37813   0.75754   0.77308
  Beta virt. eigenvalues --    0.78753   1.03194   1.32578   1.32615   1.91798
  Beta virt. eigenvalues --    2.33606   2.83369   2.84480   3.10366   3.11495

 Mulliken atomic charges:
              1
     1  O   -0.246610
     2  H    0.246610
 Sum of Mulliken charges=   0.00000

 Dipole moment (field-independent basis, Debye):
    X=     0.0000    Y=     0.0000    Z=     1.7594  Tot=     1.7594
 Quadrupole moment (field-independent basis, Debye-Ang):
   XX=    -6.3592   YY=    -5.4096   ZZ=    -4.1274
   XY=    -0.3458   XZ=     0.0000   YZ=     0.0000

  Exact polarizability:   2.795  -0.039   2.901   0.000   0.000   6.410
 Approx polarizability:   2.831  -0.099   3.102   0.000   0.000   7.913

                     1
                    SG
 Frequencies --  3704.7878
 Red. masses --     1.0671
 Frc consts  --     8.6294
 IR Inten    --     5.6655

 - Thermochemistry -
 -------------------
 Temperature   298.150 Kelvin.  Pressure   1.00000 Atm.
 Atom  1 has atomic number  8 and mass  15.99491

 Molecular mass:    17.00274 amu.
 Principal axes and moments of inertia in atomic units:
                           1         2         3
     EIGENVALUES --     0.00000   3.21989   3.21989
           X            0.00000   0.00000   1.00000
           Y            0.00000   1.00000   0.00000
           Z            1.00000   0.00000   0.00000
 This molecule is a prolate symmetric top.
 Rotational symmetry number  1.
 Rotational temperature (Kelvin)     26.89966
 Rotational constant (GHZ):         560.498586
 Zero-point vibrational energy      22159.6 (Joules/Mol)
                                    5.29626 (Kcal/Mol)
 Vibrational temperatures:   5330.36
          (Kelvin)

 Zero-point correction=                           0.008440 (Hartree/Particle)
 Thermal correction to Energy=                    0.010801
 Thermal correction to Enthalpy=                  0.011745
 Thermal correction to Gibbs Free Energy=        -0.008487
 Sum of electronic and zero-point Energies=            -75.746087
 Sum of electronic and thermal Energies=               -75.743727
 Sum of electronic and thermal Enthalpies=             -75.742783
 Sum of electronic and thermal Free Energies=          -75.763014

                     E (Thermal)             CV                S
                      KCal/Mol        Cal/Mol-Kelvin    Cal/Mol-Kelvin
 Total                    6.777              4.968             42.581
 Electronic               0.000              0.000              1.377
 Translational            0.889              2.981             34.437
 Rotational               0.592              1.987              6.767
 Vibrational              5.296              0.000              0.000

 Optimization completed.
    -- Stationary point found.
 Normal termination of Gaussian 03 at Thu Aug 12 15:00:24 2010.
